+ 0.1 0 1 cbr 210 ------- 0 0.0 2.0 0 0
- 0.1 0 1 cbr 210 ------- 0 0.0 2.0 0 0
+ 0.105 0 1 cbr 210 ------- 0 0.0 2.0 1 1
- 0.105 0 1 cbr 210 ------- 0 0.0 2.0 1 1
+ 0.11 0 1 cbr 210 ------- 0 0.0 2.0 2 2
- 0.11 0 1 cbr 210 ------- 0 0.0 2.0 2 2
r 0.110008 0 1 cbr 210 ------- 0 0.0 2.0 0 0
+ 0.110008 1 2 cbr 210 ------- 0 0.0 2.0 0 0
- 0.110008 1 2 cbr 210 ------- 0 0.0 2.0 0 0
+ 0.115 0 1 cbr 210 ------- 0 0.0 2.0 3 3
- 0.115 0 1 cbr 210 ------- 0 0.0 2.0 3 3
r 0.115008 0 1 cbr 210 ------- 0 0.0 2.0 1 1
+ 0.115008 1 2 cbr 210 ------- 0 0.0 2.0 1 1
- 0.115008 1 2 cbr 210 ------- 0 0.0 2.0 1 1
+ 0.12 0 1 cbr 210 ------- 0 0.0 2.0 4 4
- 0.12 0 1 cbr 210 ------- 0 0.0 2.0 4 4
r 0.120008 0 1 cbr 210 ------- 0 0.0 2.0 2 2
+ 0.120008 1 2 cbr 210 ------- 0 0.0 2.0 2 2
- 0.120008 1 2 cbr 210 ------- 0 0.0 2.0 2 2
+ 0.125 0 1 cbr 210 ------- 0 0.0 2.0 5 5
- 0.125 0 1 cbr 210 ------- 0 0.0 2.0 5 5
r 0.125008 0 1 cbr 210 ------- 0 0.0 2.0 3 3
+ 0.125008 1 2 cbr 210 ------- 0 0.0 2.0 3 3
- 0.125008 1 2 cbr 210 ------- 0 0.0 2.0 3 3
+ 0.13 0 1 cbr 210 ------- 0 0.0 2.0 6 6
- 0.13 0 1 cbr 210 ------- 0 0.0 2.0 6 6
r 0.130008 0 1 cbr 210 ------- 0 0.0 2.0 4 4
+ 0.130008 1 2 cbr 210 ------- 0 0.0 2.0 4 4
- 0.130008 1 2 cbr 210 ------- 0 0.0 2.0 4 4
+ 0.135 0 1 cbr 210 ------- 0 0.0 2.0 7 7
- 0.135 0 1 cbr 210 ------- 0 0.0 2.0 7 7
r 0.135008 0 1 cbr 210 ------- 0 0.0 2.0 5 5
+ 0.135008 1 2 cbr 210 ------- 0 0.0 2.0 5 5
- 0.135008 1 2 cbr 210 ------- 0 0.0 2.0 5 5
+ 0.14 0 1 cbr 210 ------- 0 0.0 2.0 8 8
- 0.14 0 1 cbr 210 ------- 0 0.0 2.0 8 8
r 0.140008 0 1 cbr 210 ------- 0 0.0 2.0 6 6
+ 0.140008 1 2 cbr 210 ------- 0 0.0 2.0 6 6
- 0.140008 1 2 cbr 210 ------- 0 0.0 2.0 6 6
+ 0.145 0 1 cbr 210 ------- 0 0.0 2.0 9 9
- 0.145 0 1 cbr 210 ------- 0 0.0 2.0 9 9
r 0.145008 0 1 cbr 210 ------- 0 0.0 2.0 7 7
+ 0.145008 1 2 cbr 210 ------- 0 0.0 2.0 7 7
- 0.145008 1 2 cbr 210 ------- 0 0.0 2.0 7 7
+ 0.15 0 1 cbr 210 ------- 0 0.0 2.0 10 10
- 0.15 0 1 cbr 210 ------- 0 0.0 2.0 10 10
r 0.150008 0 1 cbr 210 ------- 0 0.0 2.0 8 8
+ 0.150008 1 2 cbr 210 ------- 0 0.0 2.0 8 8
- 0.150008 1 2 cbr 210 ------- 0 0.0 2.0 8 8
+ 0.155 0 1 cbr 210 ------- 0 0.0 2.0 11 11
- 0.155 0 1 cbr 210 ------- 0 0.0 2.0 11 11
r 0.155008 0 1 cbr 210 ------- 0 0.0 2.0 9 9
+ 0.155008 1 2 cbr 210 ------- 0 0.0 2.0 9 9
- 0.155008 1 2 cbr 210 ------- 0 0.0 2.0 9 9
+ 0.16 0 1 cbr 210 ------- 0 0.0 2.0 12 12
- 0.16 0 1 cbr 210 ------- 0 0.0 2.0 12 12
r 0.160008 0 1 cbr 210 ------- 0 0.0 2.0 10 10
+ 0.160008 1 2 cbr 210 ------- 0 0.0 2.0 10 10
- 0.160008 1 2 cbr 210 ------- 0 0.0 2.0 10 10
+ 0.165 0 1 cbr 210 ------- 0 0.0 2.0 13 13
- 0.165 0 1 cbr 210 ------- 0 0.0 2.0 13 13
r 0.165008 0 1 cbr 210 ------- 0 0.0 2.0 11 11
+ 0.165008 1 2 cbr 210 ------- 0 0.0 2.0 11 11
- 0.165008 1 2 cbr 210 ------- 0 0.0 2.0 11 11
+ 0.17 0 1 cbr 210 ------- 0 0.0 2.0 14 14
- 0.17 0 1 cbr 210 ------- 0 0.0 2.0 14 14
r 0.170008 0 1 cbr 210 ------- 0 0.0 2.0 12 12
+ 0.170008 1 2 cbr 210 ------- 0 0.0 2.0 12 12
- 0.170008 1 2 cbr 210 ------- 0 0.0 2.0 12 12
+ 0.175 0 1 cbr 210 ------- 0 0.0 2.0 15 15
- 0.175 0 1 cbr 210 ------- 0 0.0 2.0 15 15
r 0.175008 0 1 cbr 210 ------- 0 0.0 2.0 13 13
+ 0.175008 1 2 cbr 210 ------- 0 0.0 2.0 13 13
- 0.175008 1 2 cbr 210 ------- 0 0.0 2.0 13 13
+ 0.18 0 1 cbr 210 ------- 0 0.0 2.0 16 16
- 0.18 0 1 cbr 210 ------- 0 0.0 2.0 16 16
r 0.180008 0 1 cbr 210 ------- 0 0.0 2.0 14 14
+ 0.180008 1 2 cbr 210 ------- 0 0.0 2.0 14 14
- 0.180008 1 2 cbr 210 ------- 0 0.0 2.0 14 14
+ 0.185 0 1 cbr 210 ------- 0 0.0 2.0 17 17
- 0.185 0 1 cbr 210 ------- 0 0.0 2.0 17 17
r 0.185008 0 1 cbr 210 ------- 0 0.0 2.0 15 15
+ 0.185008 1 2 cbr 210 ------- 0 0.0 2.0 15 15
- 0.185008 1 2 cbr 210 ------- 0 0.0 2.0 15 15
+ 0.19 0 1 cbr 210 ------- 0 0.0 2.0 18 18
- 0.19 0 1 cbr 210 ------- 0 0.0 2.0 18 18
r 0.190008 0 1 cbr 210 ------- 0 0.0 2.0 16 16
+ 0.190008 1 2 cbr 210 ------- 0 0.0 2.0 16 16
- 0.190008 1 2 cbr 210 ------- 0 0.0 2.0 16 16
+ 0.195 0 1 cbr 210 ------- 0 0.0 2.0 19 19
- 0.195 0 1 cbr 210 ------- 0 0.0 2.0 19 19
r 0.195008 0 1 cbr 210 ------- 0 0.0 2.0 17 17
+ 0.195008 1 2 cbr 210 ------- 0 0.0 2.0 17 17
- 0.195008 1 2 cbr 210 ------- 0 0.0 2.0 17 17
+ 0.2 0 1 cbr 210 ------- 0 0.0 2.0 20 20
- 0.2 0 1 cbr 210 ------- 0 0.0 2.0 20 20
r 0.200008 0 1 cbr 210 ------- 0 0.0 2.0 18 18
+ 0.200008 1 2 cbr 210 ------- 0 0.0 2.0 18 18
- 0.200008 1 2 cbr 210 ------- 0 0.0 2.0 18 18
+ 0.205 0 1 cbr 210 ------- 0 0.0 2.0 21 21
- 0.205 0 1 cbr 210 ------- 0 0.0 2.0 21 21
r 0.205008 0 1 cbr 210 ------- 0 0.0 2.0 19 19
+ 0.205008 1 2 cbr 210 ------- 0 0.0 2.0 19 19
- 0.205008 1 2 cbr 210 ------- 0 0.0 2.0 19 19
+ 0.21 0 1 cbr 210 ------- 0 0.0 2.0 22 22
- 0.21 0 1 cbr 210 ------- 0 0.0 2.0 22 22
r 0.210008 0 1 cbr 210 ------- 0 0.0 2.0 20 20
+ 0.210008 1 2 cbr 210 ------- 0 0.0 2.0 20 20
- 0.210008 1 2 cbr 210 ------- 0 0.0 2.0 20 20
+ 0.215 0 1 cbr 210 ------- 0 0.0 2.0 23 23
- 0.215 0 1 cbr 210 ------- 0 0.0 2.0 23 23
r 0.215008 0 1 cbr 210 ------- 0 0.0 2.0 21 21
+ 0.215008 1 2 cbr 210 ------- 0 0.0 2.0 21 21
- 0.215008 1 2 cbr 210 ------- 0 0.0 2.0 21 21
+ 0.22 0 1 cbr 210 ------- 0 0.0 2.0 24 24
- 0.22 0 1 cbr 210 ------- 0 0.0 2.0 24 24
r 0.220008 0 1 cbr 210 ------- 0 0.0 2.0 22 22
+ 0.220008 1 2 cbr 210 ------- 0 0.0 2.0 22 22
- 0.220008 1 2 cbr 210 ------- 0 0.0 2.0 22 22
+ 0.225 0 1 cbr 210 ------- 0 0.0 2.0 25 25
- 0.225 0 1 cbr 210 ------- 0 0.0 2.0 25 25
r 0.225008 0 1 cbr 210 ------- 0 0.0 2.0 23 23
+ 0.225008 1 2 cbr 210 ------- 0 0.0 2.0 23 23
- 0.225008 1 2 cbr 210 ------- 0 0.0 2.0 23 23
+ 0.23 0 1 cbr 210 ------- 0 0.0 2.0 26 26
- 0.23 0 1 cbr 210 ------- 0 0.0 2.0 26 26
r 0.230008 0 1 cbr 210 ------- 0 0.0 2.0 24 24
+ 0.230008 1 2 cbr 210 ------- 0 0.0 2.0 24 24
- 0.230008 1 2 cbr 210 ------- 0 0.0 2.0 24 24
+ 0.235 0 1 cbr 210 ------- 0 0.0 2.0 27 27
- 0.235 0 1 cbr 210 ------- 0 0.0 2.0 27 27
r 0.235008 0 1 cbr 210 ------- 0 0.0 2.0 25 25
+ 0.235008 1 2 cbr 210 ------- 0 0.0 2.0 25 25
- 0.235008 1 2 cbr 210 ------- 0 0.0 2.0 25 25
+ 0.24 0 1 cbr 210 ------- 0 0.0 2.0 28 28
- 0.24 0 1 cbr 210 ------- 0 0.0 2.0 28 28
r 0.240008 0 1 cbr 210 ------- 0 0.0 2.0 26 26
+ 0.240008 1 2 cbr 210 ------- 0 0.0 2.0 26 26
- 0.240008 1 2 cbr 210 ------- 0 0.0 2.0 26 26
+ 0.245 0 1 cbr 210 ------- 0 0.0 2.0 29 29
- 0.245 0 1 cbr 210 ------- 0 0.0 2.0 29 29
r 0.245008 0 1 cbr 210 ------- 0 0.0 2.0 27 27
+ 0.245008 1 2 cbr 210 ------- 0 0.0 2.0 27 27
- 0.245008 1 2 cbr 210 ------- 0 0.0 2.0 27 27
+ 0.25 0 1 cbr 210 ------- 0 0.0 2.0 30 30
- 0.25 0 1 cbr 210 ------- 0 0.0 2.0 30 30
r 0.250008 0 1 cbr 210 ------- 0 0.0 2.0 28 28
+ 0.250008 1 2 cbr 210 ------- 0 0.0 2.0 28 28
- 0.250008 1 2 cbr 210 ------- 0 0.0 2.0 28 28
+ 0.255 0 1 cbr 210 ------- 0 0.0 2.0 31 31
- 0.255 0 1 cbr 210 ------- 0 0.0 2.0 31 31
r 0.255008 0 1 cbr 210 ------- 0 0.0 2.0 29 29
+ 0.255008 1 2 cbr 210 ------- 0 0.0 2.0 29 29
- 0.255008 1 2 cbr 210 ------- 0 0.0 2.0 29 29
+ 0.26 0 1 cbr 210 ------- 0 0.0 2.0 32 32
- 0.26 0 1 cbr 210 ------- 0 0.0 2.0 32 32
r 0.260008 0 1 cbr 210 ------- 0 0.0 2.0 30 30
+ 0.260008 1 2 cbr 210 ------- 0 0.0 2.0 30 30
- 0.260008 1 2 cbr 210 ------- 0 0.0 2.0 30 30
+ 0.265 0 1 cbr 210 ------- 0 0.0 2.0 33 33
- 0.265 0 1 cbr 210 ------- 0 0.0 2.0 33 33
r 0.265008 0 1 cbr 210 ------- 0 0.0 2.0 31 31
+ 0.265008 1 2 cbr 210 ------- 0 0.0 2.0 31 31
- 0.265008 1 2 cbr 210 ------- 0 0.0 2.0 31 31
+ 0.27 0 1 cbr 210 ------- 0 0.0 2.0 34 34
- 0.27 0 1 cbr 210 ------- 0 0.0 2.0 34 34
r 0.270008 0 1 cbr 210 ------- 0 0.0 2.0 32 32
+ 0.270008 1 2 cbr 210 ------- 0 0.0 2.0 32 32
- 0.270008 1 2 cbr 210 ------- 0 0.0 2.0 32 32
+ 0.275 0 1 cbr 210 ------- 0 0.0 2.0 35 35
- 0.275 0 1 cbr 210 ------- 0 0.0 2.0 35 35
r 0.275008 0 1 cbr 210 ------- 0 0.0 2.0 33 33
+ 0.275008 1 2 cbr 210 ------- 0 0.0 2.0 33 33
- 0.275008 1 2 cbr 210 ------- 0 0.0 2.0 33 33
+ 0.28 0 1 cbr 210 ------- 0 0.0 2.0 36 36
- 0.28 0 1 cbr 210 ------- 0 0.0 2.0 36 36
r 0.280008 0 1 cbr 210 ------- 0 0.0 2.0 34 34
+ 0.280008 1 2 cbr 210 ------- 0 0.0 2.0 34 34
- 0.280008 1 2 cbr 210 ------- 0 0.0 2.0 34 34
+ 0.285 0 1 cbr 210 ------- 0 0.0 2.0 37 37
- 0.285 0 1 cbr 210 ------- 0 0.0 2.0 37 37
r 0.285008 0 1 cbr 210 ------- 0 0.0 2.0 35 35
+ 0.285008 1 2 cbr 210 ------- 0 0.0 2.0 35 35
- 0.285008 1 2 cbr 210 ------- 0 0.0 2.0 35 35
+ 0.29 0 1 cbr 210 ------- 0 0.0 2.0 38 38
- 0.29 0 1 cbr 210 ------- 0 0.0 2.0 38 38
r 0.290008 0 1 cbr 210 ------- 0 0.0 2.0 36 36
+ 0.290008 1 2 cbr 210 ------- 0 0.0 2.0 36 36
- 0.290008 1 2 cbr 210 ------- 0 0.0 2.0 36 36
+ 0.295 0 1 cbr 210 ------- 0 0.0 2.0 39 39
- 0.295 0 1 cbr 210 ------- 0 0.0 2.0 39 39
r 0.295008 0 1 cbr 210 ------- 0 0.0 2.0 37 37
+ 0.295008 1 2 cbr 210 ------- 0 0.0 2.0 37 37
- 0.295008 1 2 cbr 210 ------- 0 0.0 2.0 37 37
+ 0.3 0 1 cbr 210 ------- 0 0.0 2.0 40 40
- 0.3 0 1 cbr 210 ------- 0 0.0 2.0 40 40
r 0.300008 0 1 cbr 210 ------- 0 0.0 2.0 38 38
+ 0.300008 1 2 cbr 210 ------- 0 0.0 2.0 38 38
- 0.300008 1 2 cbr 210 ------- 0 0.0 2.0 38 38
+ 0.305 0 1 cbr 210 ------- 0 0.0 2.0 41 41
- 0.305 0 1 cbr 210 ------- 0 0.0 2.0 41 41
r 0.305008 0 1 cbr 210 ------- 0 0.0 2.0 39 39
+ 0.305008 1 2 cbr 210 ------- 0 0.0 2.0 39 39
- 0.305008 1 2 cbr 210 ------- 0 0.0 2.0 39 39
+ 0.31 0 1 cbr 210 ------- 0 0.0 2.0 42 42
- 0.31 0 1 cbr 210 ------- 0 0.0 2.0 42 42
r 0.310008 0 1 cbr 210 ------- 0 0.0 2.0 40 40
+ 0.310008 1 2 cbr 210 ------- 0 0.0 2.0 40 40
- 0.310008 1 2 cbr 210 ------- 0 0.0 2.0 40 40
+ 0.315 0 1 cbr 210 ------- 0 0.0 2.0 43 43
- 0.315 0 1 cbr 210 ------- 0 0.0 2.0 43 43
r 0.315008 0 1 cbr 210 ------- 0 0.0 2.0 41 41
+ 0.315008 1 2 cbr 210 ------- 0 0.0 2.0 41 41
- 0.315008 1 2 cbr 210 ------- 0 0.0 2.0 41 41
+ 0.32 0 1 cbr 210 ------- 0 0.0 2.0 44 44
- 0.32 0 1 cbr 210 ------- 0 0.0 2.0 44 44
r 0.320008 0 1 cbr 210 ------- 0 0.0 2.0 42 42
+ 0.320008 1 2 cbr 210 ------- 0 0.0 2.0 42 42
- 0.320008 1 2 cbr 210 ------- 0 0.0 2.0 42 42
+ 0.325 0 1 cbr 210 ------- 0 0.0 2.0 45 45
- 0.325 0 1 cbr 210 ------- 0 0.0 2.0 45 45
r 0.325008 0 1 cbr 210 ------- 0 0.0 2.0 43 43
+ 0.325008 1 2 cbr 210 ------- 0 0.0 2.0 43 43
- 0.325008 1 2 cbr 210 ------- 0 0.0 2.0 43 43
+ 0.33 0 1 cbr 210 ------- 0 0.0 2.0 46 46
- 0.33 0 1 cbr 210 ------- 0 0.0 2.0 46 46
r 0.330008 0 1 cbr 210 ------- 0 0.0 2.0 44 44
+ 0.330008 1 2 cbr 210 ------- 0 0.0 2.0 44 44
- 0.330008 1 2 cbr 210 ------- 0 0.0 2.0 44 44
+ 0.335 0 1 cbr 210 ------- 0 0.0 2.0 47 47
- 0.335 0 1 cbr 210 ------- 0 0.0 2.0 47 47
r 0.335008 0 1 cbr 210 ------- 0 0.0 2.0 45 45
+ 0.335008 1 2 cbr 210 ------- 0 0.0 2.0 45 45
- 0.335008 1 2 cbr 210 ------- 0 0.0 2.0 45 45
+ 0.34 0 1 cbr 210 ------- 0 0.0 2.0 48 48
- 0.34 0 1 cbr 210 ------- 0 0.0 2.0 48 48
r 0.340008 0 1 cbr 210 ------- 0 0.0 2.0 46 46
+ 0.340008 1 2 cbr 210 ------- 0 0.0 2.0 46 46
- 0.340008 1 2 cbr 210 ------- 0 0.0 2.0 46 46
+ 0.345 0 1 cbr 210 ------- 0 0.0 2.0 49 49
- 0.345 0 1 cbr 210 ------- 0 0.0 2.0 49 49
r 0.345008 0 1 cbr 210 ------- 0 0.0 2.0 47 47
+ 0.345008 1 2 cbr 210 ------- 0 0.0 2.0 47 47
- 0.345008 1 2 cbr 210 ------- 0 0.0 2.0 47 47
+ 0.35 0 1 cbr 210 ------- 0 0.0 2.0 50 50
- 0.35 0 1 cbr 210 ------- 0 0.0 2.0 50 50
r 0.350008 0 1 cbr 210 ------- 0 0.0 2.0 48 48
+ 0.350008 1 2 cbr 210 ------- 0 0.0 2.0 48 48
- 0.350008 1 2 cbr 210 ------- 0 0.0 2.0 48 48
+ 0.355 0 1 cbr 210 ------- 0 0.0 2.0 51 51
- 0.355 0 1 cbr 210 ------- 0 0.0 2.0 51 51
r 0.355008 0 1 cbr 210 ------- 0 0.0 2.0 49 49
+ 0.355008 1 2 cbr 210 ------- 0 0.0 2.0 49 49
- 0.355008 1 2 cbr 210 ------- 0 0.0 2.0 49 49
+ 0.36 0 1 cbr 210 ------- 0 0.0 2.0 52 52
- 0.36 0 1 cbr 210 ------- 0 0.0 2.0 52 52
r 0.360008 0 1 cbr 210 ------- 0 0.0 2.0 50 50
+ 0.360008 1 2 cbr 210 ------- 0 0.0 2.0 50 50
- 0.360008 1 2 cbr 210 ------- 0 0.0 2.0 50 50
+ 0.365 0 1 cbr 210 ------- 0 0.0 2.0 53 53
- 0.365 0 1 cbr 210 ------- 0 0.0 2.0 53 53
r 0.365008 0 1 cbr 210 ------- 0 0.0 2.0 51 51
+ 0.365008 1 2 cbr 210 ------- 0 0.0 2.0 51 51
- 0.365008 1 2 cbr 210 ------- 0 0.0 2.0 51 51
+ 0.37 0 1 cbr 210 ------- 0 0.0 2.0 54 54
- 0.37 0 1 cbr 210 ------- 0 0.0 2.0 54 54
r 0.370008 0 1 cbr 210 ------- 0 0.0 2.0 52 52
+ 0.370008 1 2 cbr 210 ------- 0 0.0 2.0 52 52
- 0.370008 1 2 cbr 210 ------- 0 0.0 2.0 52 52
+ 0.375 0 1 cbr 210 ------- 0 0.0 2.0 55 55
- 0.375 0 1 cbr 210 ------- 0 0.0 2.0 55 55
r 0.375008 0 1 cbr 210 ------- 0 0.0 2.0 53 53
+ 0.375008 1 2 cbr 210 ------- 0 0.0 2.0 53 53
- 0.375008 1 2 cbr 210 ------- 0 0.0 2.0 53 53
+ 0.38 0 1 cbr 210 ------- 0 0.0 2.0 56 56
- 0.38 0 1 cbr 210 ------- 0 0.0 2.0 56 56
r 0.380008 0 1 cbr 210 ------- 0 0.0 2.0 54 54
+ 0.380008 1 2 cbr 210 ------- 0 0.0 2.0 54 54
- 0.380008 1 2 cbr 210 ------- 0 0.0 2.0 54 54
+ 0.385 0 1 cbr 210 ------- 0 0.0 2.0 57 57
- 0.385 0 1 cbr 210 ------- 0 0.0 2.0 57 57
r 0.385008 0 1 cbr 210 ------- 0 0.0 2.0 55 55
+ 0.385008 1 2 cbr 210 ------- 0 0.0 2.0 55 55
- 0.385008 1 2 cbr 210 ------- 0 0.0 2.0 55 55
+ 0.39 0 1 cbr 210 ------- 0 0.0 2.0 58 58
- 0.39 0 1 cbr 210 ------- 0 0.0 2.0 58 58
r 0.390008 0 1 cbr 210 ------- 0 0.0 2.0 56 56
+ 0.390008 1 2 cbr 210 ------- 0 0.0 2.0 56 56
- 0.390008 1 2 cbr 210 ------- 0 0.0 2.0 56 56
+ 0.395 0 1 cbr 210 ------- 0 0.0 2.0 59 59
- 0.395 0 1 cbr 210 ------- 0 0.0 2.0 59 59
r 0.395008 0 1 cbr 210 ------- 0 0.0 2.0 57 57
+ 0.395008 1 2 cbr 210 ------- 0 0.0 2.0 57 57
- 0.395008 1 2 cbr 210 ------- 0 0.0 2.0 57 57
+ 0.4 0 1 cbr 210 ------- 0 0.0 2.0 60 60
- 0.4 0 1 cbr 210 ------- 0 0.0 2.0 60 60
r 0.400008 0 1 cbr 210 ------- 0 0.0 2.0 58 58
+ 0.400008 1 2 cbr 210 ------- 0 0.0 2.0 58 58
- 0.400008 1 2 cbr 210 ------- 0 0.0 2.0 58 58
+ 0.405 0 1 cbr 210 ------- 0 0.0 2.0 61 61
- 0.405 0 1 cbr 210 ------- 0 0.0 2.0 61 61
r 0.405008 0 1 cbr 210 ------- 0 0.0 2.0 59 59
+ 0.405008 1 2 cbr 210 ------- 0 0.0 2.0 59 59
- 0.405008 1 2 cbr 210 ------- 0 0.0 2.0 59 59
+ 0.41 0 1 cbr 210 ------- 0 0.0 2.0 62 62
- 0.41 0 1 cbr 210 ------- 0 0.0 2.0 62 62
r 0.410008 0 1 cbr 210 ------- 0 0.0 2.0 60 60
+ 0.410008 1 2 cbr 210 ------- 0 0.0 2.0 60 60
- 0.410008 1 2 cbr 210 ------- 0 0.0 2.0 60 60
+ 0.415 0 1 cbr 210 ------- 0 0.0 2.0 63 63
- 0.415 0 1 cbr 210 ------- 0 0.0 2.0 63 63
r 0.415008 0 1 cbr 210 ------- 0 0.0 2.0 61 61
+ 0.415008 1 2 cbr 210 ------- 0 0.0 2.0 61 61
- 0.415008 1 2 cbr 210 ------- 0 0.0 2.0 61 61
+ 0.42 0 1 cbr 210 ------- 0 0.0 2.0 64 64
- 0.42 0 1 cbr 210 ------- 0 0.0 2.0 64 64
r 0.420008 0 1 cbr 210 ------- 0 0.0 2.0 62 62
+ 0.420008 1 2 cbr 210 ------- 0 0.0 2.0 62 62
- 0.420008 1 2 cbr 210 ------- 0 0.0 2.0 62 62
+ 0.425 0 1 cbr 210 ------- 0 0.0 2.0 65 65
- 0.425 0 1 cbr 210 ------- 0 0.0 2.0 65 65
r 0.425008 0 1 cbr 210 ------- 0 0.0 2.0 63 63
+ 0.425008 1 2 cbr 210 ------- 0 0.0 2.0 63 63
- 0.425008 1 2 cbr 210 ------- 0 0.0 2.0 63 63
+ 0.43 0 1 cbr 210 ------- 0 0.0 2.0 66 66
- 0.43 0 1 cbr 210 ------- 0 0.0 2.0 66 66
r 0.430008 0 1 cbr 210 ------- 0 0.0 2.0 64 64
+ 0.430008 1 2 cbr 210 ------- 0 0.0 2.0 64 64
- 0.430008 1 2 cbr 210 ------- 0 0.0 2.0 64 64
+ 0.435 0 1 cbr 210 ------- 0 0.0 2.0 67 67
- 0.435 0 1 cbr 210 ------- 0 0.0 2.0 67 67
r 0.435008 0 1 cbr 210 ------- 0 0.0 2.0 65 65
+ 0.435008 1 2 cbr 210 ------- 0 0.0 2.0 65 65
- 0.435008 1 2 cbr 210 ------- 0 0.0 2.0 65 65
+ 0.44 0 1 cbr 210 ------- 0 0.0 2.0 68 68
- 0.44 0 1 cbr 210 ------- 0 0.0 2.0 68 68
r 0.440008 0 1 cbr 210 ------- 0 0.0 2.0 66 66
+ 0.440008 1 2 cbr 210 ------- 0 0.0 2.0 66 66
- 0.440008 1 2 cbr 210 ------- 0 0.0 2.0 66 66
+ 0.445 0 1 cbr 210 ------- 0 0.0 2.0 69 69
- 0.445 0 1 cbr 210 ------- 0 0.0 2.0 69 69
r 0.445008 0 1 cbr 210 ------- 0 0.0 2.0 67 67
+ 0.445008 1 2 cbr 210 ------- 0 0.0 2.0 67 67
- 0.445008 1 2 cbr 210 ------- 0 0.0 2.0 67 67
+ 0.45 0 1 cbr 210 ------- 0 0.0 2.0 70 70
- 0.45 0 1 cbr 210 ------- 0 0.0 2.0 70 70
r 0.450008 0 1 cbr 210 ------- 0 0.0 2.0 68 68
+ 0.450008 1 2 cbr 210 ------- 0 0.0 2.0 68 68
- 0.450008 1 2 cbr 210 ------- 0 0.0 2.0 68 68
+ 0.455 0 1 cbr 210 ------- 0 0.0 2.0 71 71
- 0.455 0 1 cbr 210 ------- 0 0.0 2.0 71 71
r 0.455008 0 1 cbr 210 ------- 0 0.0 2.0 69 69
+ 0.455008 1 2 cbr 210 ------- 0 0.0 2.0 69 69
- 0.455008 1 2 cbr 210 ------- 0 0.0 2.0 69 69
+ 0.46 0 1 cbr 210 ------- 0 0.0 2.0 72 72
- 0.46 0 1 cbr 210 ------- 0 0.0 2.0 72 72
r 0.460008 0 1 cbr 210 ------- 0 0.0 2.0 70 70
+ 0.460008 1 2 cbr 210 ------- 0 0.0 2.0 70 70
- 0.460008 1 2 cbr 210 ------- 0 0.0 2.0 70 70
+ 0.465 0 1 cbr 210 ------- 0 0.0 2.0 73 73
- 0.465 0 1 cbr 210 ------- 0 0.0 2.0 73 73
r 0.465008 0 1 cbr 210 ------- 0 0.0 2.0 71 71
+ 0.465008 1 2 cbr 210 ------- 0 0.0 2.0 71 71
- 0.465008 1 2 cbr 210 ------- 0 0.0 2.0 71 71
+ 0.47 0 1 cbr 210 ------- 0 0.0 2.0 74 74
- 0.47 0 1 cbr 210 ------- 0 0.0 2.0 74 74
r 0.470008 0 1 cbr 210 ------- 0 0.0 2.0 72 72
+ 0.470008 1 2 cbr 210 ------- 0 0.0 2.0 72 72
- 0.470008 1 2 cbr 210 ------- 0 0.0 2.0 72 72
+ 0.475 0 1 cbr 210 ------- 0 0.0 2.0 75 75
- 0.475 0 1 cbr 210 ------- 0 0.0 2.0 75 75
r 0.475008 0 1 cbr 210 ------- 0 0.0 2.0 73 73
+ 0.475008 1 2 cbr 210 ------- 0 0.0 2.0 73 73
- 0.475008 1 2 cbr 210 ------- 0 0.0 2.0 73 73
+ 0.48 0 1 cbr 210 ------- 0 0.0 2.0 76 76
- 0.48 0 1 cbr 210 ------- 0 0.0 2.0 76 76
r 0.480008 0 1 cbr 210 ------- 0 0.0 2.0 74 74
+ 0.480008 1 2 cbr 210 ------- 0 0.0 2.0 74 74
- 0.480008 1 2 cbr 210 ------- 0 0.0 2.0 74 74
+ 0.485 0 1 cbr 210 ------- 0 0.0 2.0 77 77
- 0.485 0 1 cbr 210 ------- 0 0.0 2.0 77 77
r 0.485008 0 1 cbr 210 ------- 0 0.0 2.0 75 75
+ 0.485008 1 2 cbr 210 ------- 0 0.0 2.0 75 75
- 0.485008 1 2 cbr 210 ------- 0 0.0 2.0 75 75
+ 0.49 0 1 cbr 210 ------- 0 0.0 2.0 78 78
- 0.49 0 1 cbr 210 ------- 0 0.0 2.0 78 78
r 0.490008 0 1 cbr 210 ------- 0 0.0 2.0 76 76
+ 0.490008 1 2 cbr 210 ------- 0 0.0 2.0 76 76
- 0.490008 1 2 cbr 210 ------- 0 0.0 2.0 76 76
+ 0.495 0 1 cbr 210 ------- 0 0.0 2.0 79 79
- 0.495 0 1 cbr 210 ------- 0 0.0 2.0 79 79
r 0.495008 0 1 cbr 210 ------- 0 0.0 2.0 77 77
+ 0.495008 1 2 cbr 210 ------- 0 0.0 2.0 77 77
- 0.495008 1 2 cbr 210 ------- 0 0.0 2.0 77 77
+ 0.5 0 1 cbr 210 ------- 0 0.0 2.0 80 80
- 0.5 0 1 cbr 210 ------- 0 0.0 2.0 80 80
r 0.500008 0 1 cbr 210 ------- 0 0.0 2.0 78 78
+ 0.500008 1 2 cbr 210 ------- 0 0.0 2.0 78 78
- 0.500008 1 2 cbr 210 ------- 0 0.0 2.0 78 78
+ 0.505 0 1 cbr 210 ------- 0 0.0 2.0 81 81
- 0.505 0 1 cbr 210 ------- 0 0.0 2.0 81 81
r 0.505008 0 1 cbr 210 ------- 0 0.0 2.0 79 79
+ 0.505008 1 2 cbr 210 ------- 0 0.0 2.0 79 79
- 0.505008 1 2 cbr 210 ------- 0 0.0 2.0 79 79
+ 0.51 0 1 cbr 210 ------- 0 0.0 2.0 82 82
- 0.51 0 1 cbr 210 ------- 0 0.0 2.0 82 82
r 0.510008 0 1 cbr 210 ------- 0 0.0 2.0 80 80
+ 0.510008 1 2 cbr 210 ------- 0 0.0 2.0 80 80
- 0.510008 1 2 cbr 210 ------- 0 0.0 2.0 80 80
+ 0.515 0 1 cbr 210 ------- 0 0.0 2.0 83 83
- 0.515 0 1 cbr 210 ------- 0 0.0 2.0 83 83
r 0.515008 0 1 cbr 210 ------- 0 0.0 2.0 81 81
+ 0.515008 1 2 cbr 210 ------- 0 0.0 2.0 81 81
- 0.515008 1 2 cbr 210 ------- 0 0.0 2.0 81 81
+ 0.52 0 1 cbr 210 ------- 0 0.0 2.0 84 84
- 0.52 0 1 cbr 210 ------- 0 0.0 2.0 84 84
r 0.520008 0 1 cbr 210 ------- 0 0.0 2.0 82 82
+ 0.520008 1 2 cbr 210 ------- 0 0.0 2.0 82 82
- 0.520008 1 2 cbr 210 ------- 0 0.0 2.0 82 82
+ 0.525 0 1 cbr 210 ------- 0 0.0 2.0 85 85
- 0.525 0 1 cbr 210 ------- 0 0.0 2.0 85 85
r 0.525008 0 1 cbr 210 ------- 0 0.0 2.0 83 83
+ 0.525008 1 2 cbr 210 ------- 0 0.0 2.0 83 83
- 0.525008 1 2 cbr 210 ------- 0 0.0 2.0 83 83
+ 0.53 0 1 cbr 210 ------- 0 0.0 2.0 86 86
- 0.53 0 1 cbr 210 ------- 0 0.0 2.0 86 86
r 0.530008 0 1 cbr 210 ------- 0 0.0 2.0 84 84
+ 0.530008 1 2 cbr 210 ------- 0 0.0 2.0 84 84
- 0.530008 1 2 cbr 210 ------- 0 0.0 2.0 84 84
+ 0.535 0 1 cbr 210 ------- 0 0.0 2.0 87 87
- 0.535 0 1 cbr 210 ------- 0 0.0 2.0 87 87
r 0.535008 0 1 cbr 210 ------- 0 0.0 2.0 85 85
+ 0.535008 1 2 cbr 210 ------- 0 0.0 2.0 85 85
- 0.535008 1 2 cbr 210 ------- 0 0.0 2.0 85 85
+ 0.54 0 1 cbr 210 ------- 0 0.0 2.0 88 88
- 0.54 0 1 cbr 210 ------- 0 0.0 2.0 88 88
r 0.540008 0 1 cbr 210 ------- 0 0.0 2.0 86 86
+ 0.540008 1 2 cbr 210 ------- 0 0.0 2.0 86 86
- 0.540008 1 2 cbr 210 ------- 0 0.0 2.0 86 86
+ 0.545 0 1 cbr 210 ------- 0 0.0 2.0 89 89
- 0.545 0 1 cbr 210 ------- 0 0.0 2.0 89 89
r 0.545008 0 1 cbr 210 ------- 0 0.0 2.0 87 87
+ 0.545008 1 2 cbr 210 ------- 0 0.0 2.0 87 87
- 0.545008 1 2 cbr 210 ------- 0 0.0 2.0 87 87
+ 0.55 0 1 cbr 210 ------- 0 0.0 2.0 90 90
- 0.55 0 1 cbr 210 ------- 0 0.0 2.0 90 90
r 0.550008 0 1 cbr 210 ------- 0 0.0 2.0 88 88
+ 0.550008 1 2 cbr 210 ------- 0 0.0 2.0 88 88
- 0.550008 1 2 cbr 210 ------- 0 0.0 2.0 88 88
+ 0.555 0 1 cbr 210 ------- 0 0.0 2.0 91 91
- 0.555 0 1 cbr 210 ------- 0 0.0 2.0 91 91
r 0.555008 0 1 cbr 210 ------- 0 0.0 2.0 89 89
+ 0.555008 1 2 cbr 210 ------- 0 0.0 2.0 89 89
- 0.555008 1 2 cbr 210 ------- 0 0.0 2.0 89 89
+ 0.56 0 1 cbr 210 ------- 0 0.0 2.0 92 92
- 0.56 0 1 cbr 210 ------- 0 0.0 2.0 92 92
r 0.560008 0 1 cbr 210 ------- 0 0.0 2.0 90 90
+ 0.560008 1 2 cbr 210 ------- 0 0.0 2.0 90 90
- 0.560008 1 2 cbr 210 ------- 0 0.0 2.0 90 90
+ 0.565 0 1 cbr 210 ------- 0 0.0 2.0 93 93
- 0.565 0 1 cbr 210 ------- 0 0.0 2.0 93 93
r 0.565008 0 1 cbr 210 ------- 0 0.0 2.0 91 91
+ 0.565008 1 2 cbr 210 ------- 0 0.0 2.0 91 91
- 0.565008 1 2 cbr 210 ------- 0 0.0 2.0 91 91
+ 0.57 0 1 cbr 210 ------- 0 0.0 2.0 94 94
- 0.57 0 1 cbr 210 ------- 0 0.0 2.0 94 94
r 0.570008 0 1 cbr 210 ------- 0 0.0 2.0 92 92
+ 0.570008 1 2 cbr 210 ------- 0 0.0 2.0 92 92
- 0.570008 1 2 cbr 210 ------- 0 0.0 2.0 92 92
+ 0.575 0 1 cbr 210 ------- 0 0.0 2.0 95 95
- 0.575 0 1 cbr 210 ------- 0 0.0 2.0 95 95
r 0.575008 0 1 cbr 210 ------- 0 0.0 2.0 93 93
+ 0.575008 1 2 cbr 210 ------- 0 0.0 2.0 93 93
- 0.575008 1 2 cbr 210 ------- 0 0.0 2.0 93 93
+ 0.58 0 1 cbr 210 ------- 0 0.0 2.0 96 96
- 0.58 0 1 cbr 210 ------- 0 0.0 2.0 96 96
r 0.580008 0 1 cbr 210 ------- 0 0.0 2.0 94 94
+ 0.580008 1 2 cbr 210 ------- 0 0.0 2.0 94 94
- 0.580008 1 2 cbr 210 ------- 0 0.0 2.0 94 94
+ 0.585 0 1 cbr 210 ------- 0 0.0 2.0 97 97
- 0.585 0 1 cbr 210 ------- 0 0.0 2.0 97 97
r 0.585008 0 1 cbr 210 ------- 0 0.0 2.0 95 95
+ 0.585008 1 2 cbr 210 ------- 0 0.0 2.0 95 95
- 0.585008 1 2 cbr 210 ------- 0 0.0 2.0 95 95
+ 0.59 0 1 cbr 210 ------- 0 0.0 2.0 98 98
- 0.59 0 1 cbr 210 ------- 0 0.0 2.0 98 98
r 0.590008 0 1 cbr 210 ------- 0 0.0 2.0 96 96
+ 0.590008 1 2 cbr 210 ------- 0 0.0 2.0 96 96
- 0.590008 1 2 cbr 210 ------- 0 0.0 2.0 96 96
+ 0.595 0 1 cbr 210 ------- 0 0.0 2.0 99 99
- 0.595 0 1 cbr 210 ------- 0 0.0 2.0 99 99
r 0.595008 0 1 cbr 210 ------- 0 0.0 2.0 97 97
+ 0.595008 1 2 cbr 210 ------- 0 0.0 2.0 97 97
- 0.595008 1 2 cbr 210 ------- 0 0.0 2.0 97 97
+ 0.6 0 1 cbr 210 ------- 0 0.0 2.0 100 100
- 0.6 0 1 cbr 210 ------- 0 0.0 2.0 100 100
r 0.600008 0 1 cbr 210 ------- 0 0.0 2.0 98 98
+ 0.600008 1 2 cbr 210 ------- 0 0.0 2.0 98 98
- 0.600008 1 2 cbr 210 ------- 0 0.0 2.0 98 98
+ 0.605 0 1 cbr 210 ------- 0 0.0 2.0 101 101
- 0.605 0 1 cbr 210 ------- 0 0.0 2.0 101 101
r 0.605008 0 1 cbr 210 ------- 0 0.0 2.0 99 99
+ 0.605008 1 2 cbr 210 ------- 0 0.0 2.0 99 99
- 0.605008 1 2 cbr 210 ------- 0 0.0 2.0 99 99
+ 0.61 0 1 cbr 210 ------- 0 0.0 2.0 102 102
- 0.61 0 1 cbr 210 ------- 0 0.0 2.0 102 102
r 0.610008 0 1 cbr 210 ------- 0 0.0 2.0 100 100
+ 0.610008 1 2 cbr 210 ------- 0 0.0 2.0 100 100
- 0.610008 1 2 cbr 210 ------- 0 0.0 2.0 100 100
+ 0.615 0 1 cbr 210 ------- 0 0.0 2.0 103 103
- 0.615 0 1 cbr 210 ------- 0 0.0 2.0 103 103
r 0.615008 0 1 cbr 210 ------- 0 0.0 2.0 101 101
+ 0.615008 1 2 cbr 210 ------- 0 0.0 2.0 101 101
- 0.615008 1 2 cbr 210 ------- 0 0.0 2.0 101 101
+ 0.62 0 1 cbr 210 ------- 0 0.0 2.0 104 104
- 0.62 0 1 cbr 210 ------- 0 0.0 2.0 104 104
r 0.620008 0 1 cbr 210 ------- 0 0.0 2.0 102 102
+ 0.620008 1 2 cbr 210 ------- 0 0.0 2.0 102 102
- 0.620008 1 2 cbr 210 ------- 0 0.0 2.0 102 102
+ 0.625 0 1 cbr 210 ------- 0 0.0 2.0 105 105
- 0.625 0 1 cbr 210 ------- 0 0.0 2.0 105 105
r 0.625008 0 1 cbr 210 ------- 0 0.0 2.0 103 103
+ 0.625008 1 2 cbr 210 ------- 0 0.0 2.0 103 103
- 0.625008 1 2 cbr 210 ------- 0 0.0 2.0 103 103
+ 0.63 0 1 cbr 210 ------- 0 0.0 2.0 106 106
- 0.63 0 1 cbr 210 ------- 0 0.0 2.0 106 106
r 0.630008 0 1 cbr 210 ------- 0 0.0 2.0 104 104
+ 0.630008 1 2 cbr 210 ------- 0 0.0 2.0 104 104
- 0.630008 1 2 cbr 210 ------- 0 0.0 2.0 104 104
+ 0.635 0 1 cbr 210 ------- 0 0.0 2.0 107 107
- 0.635 0 1 cbr 210 ------- 0 0.0 2.0 107 107
r 0.635008 0 1 cbr 210 ------- 0 0.0 2.0 105 105
+ 0.635008 1 2 cbr 210 ------- 0 0.0 2.0 105 105
- 0.635008 1 2 cbr 210 ------- 0 0.0 2.0 105 105
+ 0.64 0 1 cbr 210 ------- 0 0.0 2.0 108 108
- 0.64 0 1 cbr 210 ------- 0 0.0 2.0 108 108
r 0.640008 0 1 cbr 210 ------- 0 0.0 2.0 106 106
+ 0.640008 1 2 cbr 210 ------- 0 0.0 2.0 106 106
- 0.640008 1 2 cbr 210 ------- 0 0.0 2.0 106 106
+ 0.645 0 1 cbr 210 ------- 0 0.0 2.0 109 109
- 0.645 0 1 cbr 210 ------- 0 0.0 2.0 109 109
r 0.645008 0 1 cbr 210 ------- 0 0.0 2.0 107 107
+ 0.645008 1 2 cbr 210 ------- 0 0.0 2.0 107 107
- 0.645008 1 2 cbr 210 ------- 0 0.0 2.0 107 107
+ 0.65 0 1 cbr 210 ------- 0 0.0 2.0 110 110
- 0.65 0 1 cbr 210 ------- 0 0.0 2.0 110 110
r 0.650008 0 1 cbr 210 ------- 0 0.0 2.0 108 108
+ 0.650008 1 2 cbr 210 ------- 0 0.0 2.0 108 108
- 0.650008 1 2 cbr 210 ------- 0 0.0 2.0 108 108
+ 0.655 0 1 cbr 210 ------- 0 0.0 2.0 111 111
- 0.655 0 1 cbr 210 ------- 0 0.0 2.0 111 111
r 0.655008 0 1 cbr 210 ------- 0 0.0 2.0 109 109
+ 0.655008 1 2 cbr 210 ------- 0 0.0 2.0 109 109
- 0.655008 1 2 cbr 210 ------- 0 0.0 2.0 109 109
+ 0.66 0 1 cbr 210 ------- 0 0.0 2.0 112 112
- 0.66 0 1 cbr 210 ------- 0 0.0 2.0 112 112
r 0.660008 0 1 cbr 210 ------- 0 0.0 2.0 110 110
+ 0.660008 1 2 cbr 210 ------- 0 0.0 2.0 110 110
- 0.660008 1 2 cbr 210 ------- 0 0.0 2.0 110 110
+ 0.665 0 1 cbr 210 ------- 0 0.0 2.0 113 113
- 0.665 0 1 cbr 210 ------- 0 0.0 2.0 113 113
r 0.665008 0 1 cbr 210 ------- 0 0.0 2.0 111 111
+ 0.665008 1 2 cbr 210 ------- 0 0.0 2.0 111 111
- 0.665008 1 2 cbr 210 ------- 0 0.0 2.0 111 111
+ 0.67 0 1 cbr 210 ------- 0 0.0 2.0 114 114
- 0.67 0 1 cbr 210 ------- 0 0.0 2.0 114 114
r 0.670008 0 1 cbr 210 ------- 0 0.0 2.0 112 112
+ 0.670008 1 2 cbr 210 ------- 0 0.0 2.0 112 112
- 0.670008 1 2 cbr 210 ------- 0 0.0 2.0 112 112
+ 0.675 0 1 cbr 210 ------- 0 0.0 2.0 115 115
- 0.675 0 1 cbr 210 ------- 0 0.0 2.0 115 115
r 0.675008 0 1 cbr 210 ------- 0 0.0 2.0 113 113
+ 0.675008 1 2 cbr 210 ------- 0 0.0 2.0 113 113
- 0.675008 1 2 cbr 210 ------- 0 0.0 2.0 113 113
+ 0.68 0 1 cbr 210 ------- 0 0.0 2.0 116 116
- 0.68 0 1 cbr 210 ------- 0 0.0 2.0 116 116
r 0.680008 0 1 cbr 210 ------- 0 0.0 2.0 114 114
+ 0.680008 1 2 cbr 210 ------- 0 0.0 2.0 114 114
- 0.680008 1 2 cbr 210 ------- 0 0.0 2.0 114 114
+ 0.685 0 1 cbr 210 ------- 0 0.0 2.0 117 117
- 0.685 0 1 cbr 210 ------- 0 0.0 2.0 117 117
r 0.685008 0 1 cbr 210 ------- 0 0.0 2.0 115 115
+ 0.685008 1 2 cbr 210 ------- 0 0.0 2.0 115 115
- 0.685008 1 2 cbr 210 ------- 0 0.0 2.0 115 115
+ 0.69 0 1 cbr 210 ------- 0 0.0 2.0 118 118
- 0.69 0 1 cbr 210 ------- 0 0.0 2.0 118 118
r 0.690008 0 1 cbr 210 ------- 0 0.0 2.0 116 116
+ 0.690008 1 2 cbr 210 ------- 0 0.0 2.0 116 116
- 0.690008 1 2 cbr 210 ------- 0 0.0 2.0 116 116
+ 0.695 0 1 cbr 210 ------- 0 0.0 2.0 119 119
- 0.695 0 1 cbr 210 ------- 0 0.0 2.0 119 119
r 0.695008 0 1 cbr 210 ------- 0 0.0 2.0 117 117
+ 0.695008 1 2 cbr 210 ------- 0 0.0 2.0 117 117
- 0.695008 1 2 cbr 210 ------- 0 0.0 2.0 117 117
+ 0.7 0 1 cbr 210 ------- 0 0.0 2.0 120 120
- 0.7 0 1 cbr 210 ------- 0 0.0 2.0 120 120
r 0.700008 0 1 cbr 210 ------- 0 0.0 2.0 118 118
+ 0.700008 1 2 cbr 210 ------- 0 0.0 2.0 118 118
- 0.700008 1 2 cbr 210 ------- 0 0.0 2.0 118 118
+ 0.705 0 1 cbr 210 ------- 0 0.0 2.0 121 121
- 0.705 0 1 cbr 210 ------- 0 0.0 2.0 121 121
r 0.705008 0 1 cbr 210 ------- 0 0.0 2.0 119 119
+ 0.705008 1 2 cbr 210 ------- 0 0.0 2.0 119 119
- 0.705008 1 2 cbr 210 ------- 0 0.0 2.0 119 119
+ 0.71 0 1 cbr 210 ------- 0 0.0 2.0 122 122
- 0.71 0 1 cbr 210 ------- 0 0.0 2.0 122 122
r 0.710008 0 1 cbr 210 ------- 0 0.0 2.0 120 120
+ 0.710008 1 2 cbr 210 ------- 0 0.0 2.0 120 120
- 0.710008 1 2 cbr 210 ------- 0 0.0 2.0 120 120
+ 0.715 0 1 cbr 210 ------- 0 0.0 2.0 123 123
- 0.715 0 1 cbr 210 ------- 0 0.0 2.0 123 123
r 0.715008 0 1 cbr 210 ------- 0 0.0 2.0 121 121
+ 0.715008 1 2 cbr 210 ------- 0 0.0 2.0 121 121
- 0.715008 1 2 cbr 210 ------- 0 0.0 2.0 121 121
+ 0.72 0 1 cbr 210 ------- 0 0.0 2.0 124 124
- 0.72 0 1 cbr 210 ------- 0 0.0 2.0 124 124
r 0.720008 0 1 cbr 210 ------- 0 0.0 2.0 122 122
+ 0.720008 1 2 cbr 210 ------- 0 0.0 2.0 122 122
- 0.720008 1 2 cbr 210 ------- 0 0.0 2.0 122 122
+ 0.725 0 1 cbr 210 ------- 0 0.0 2.0 125 125
- 0.725 0 1 cbr 210 ------- 0 0.0 2.0 125 125
r 0.725008 0 1 cbr 210 ------- 0 0.0 2.0 123 123
+ 0.725008 1 2 cbr 210 ------- 0 0.0 2.0 123 123
- 0.725008 1 2 cbr 210 ------- 0 0.0 2.0 123 123
+ 0.73 0 1 cbr 210 ------- 0 0.0 2.0 126 126
- 0.73 0 1 cbr 210 ------- 0 0.0 2.0 126 126
r 0.730008 0 1 cbr 210 ------- 0 0.0 2.0 124 124
+ 0.730008 1 2 cbr 210 ------- 0 0.0 2.0 124 124
- 0.730008 1 2 cbr 210 ------- 0 0.0 2.0 124 124
+ 0.735 0 1 cbr 210 ------- 0 0.0 2.0 127 127
- 0.735 0 1 cbr 210 ------- 0 0.0 2.0 127 127
r 0.735008 0 1 cbr 210 ------- 0 0.0 2.0 125 125
+ 0.735008 1 2 cbr 210 ------- 0 0.0 2.0 125 125
- 0.735008 1 2 cbr 210 ------- 0 0.0 2.0 125 125
+ 0.74 0 1 cbr 210 ------- 0 0.0 2.0 128 128
- 0.74 0 1 cbr 210 ------- 0 0.0 2.0 128 128
r 0.740008 0 1 cbr 210 ------- 0 0.0 2.0 126 126
+ 0.740008 1 2 cbr 210 ------- 0 0.0 2.0 126 126
- 0.740008 1 2 cbr 210 ------- 0 0.0 2.0 126 126
+ 0.745 0 1 cbr 210 ------- 0 0.0 2.0 129 129
- 0.745 0 1 cbr 210 ------- 0 0.0 2.0 129 129
r 0.745008 0 1 cbr 210 ------- 0 0.0 2.0 127 127
+ 0.745008 1 2 cbr 210 ------- 0 0.0 2.0 127 127
- 0.745008 1 2 cbr 210 ------- 0 0.0 2.0 127 127
+ 0.75 0 1 cbr 210 ------- 0 0.0 2.0 130 130
- 0.75 0 1 cbr 210 ------- 0 0.0 2.0 130 130
r 0.750008 0 1 cbr 210 ------- 0 0.0 2.0 128 128
+ 0.750008 1 2 cbr 210 ------- 0 0.0 2.0 128 128
- 0.750008 1 2 cbr 210 ------- 0 0.0 2.0 128 128
+ 0.755 0 1 cbr 210 ------- 0 0.0 2.0 131 131
- 0.755 0 1 cbr 210 ------- 0 0.0 2.0 131 131
r 0.755008 0 1 cbr 210 ------- 0 0.0 2.0 129 129
+ 0.755008 1 2 cbr 210 ------- 0 0.0 2.0 129 129