V -t * -v 1.0a5 -a 0
A -t * -n 1 -p 0 -o 0x7fffffff -c 30 -a 1
A -t * -h 1 -m 1073741823 -s 0
n -t * -a 0 -s 0 -S UP -v circle -c black -i black
n -t * -a 1 -s 1 -S UP -v circle -c black -i black
n -t * -a 2 -s 2 -S UP -v circle -c black -i black
l -t * -s 0 -d 1 -S UP -r 200000000 -D 0.01 -c black
l -t * -s 1 -d 2 -S UP -r 1000000 -D 1 -c black
+ -t 0.1 -s 0 -d 1 -p cbr -e 210 -c 0 -i 0 -a 0 -x {0.0 2.0 0 ------- null}
- -t 0.1 -s 0 -d 1 -p cbr -e 210 -c 0 -i 0 -a 0 -x {0.0 2.0 0 ------- null}
h -t 0.1 -s 0 -d 1 -p cbr -e 210 -c 0 -i 0 -a 0 -x {0.0 2.0 -1 ------- null}
+ -t 0.105 -s 0 -d 1 -p cbr -e 210 -c 0 -i 1 -a 0 -x {0.0 2.0 1 ------- null}
- -t 0.105 -s 0 -d 1 -p cbr -e 210 -c 0 -i 1 -a 0 -x {0.0 2.0 1 ------- null}
h -t 0.105 -s 0 -d 1 -p cbr -e 210 -c 0 -i 1 -a 0 -x {0.0 2.0 -1 ------- null}
+ -t 0.11 -s 0 -d 1 -p cbr -e 210 -c 0 -i 2 -a 0 -x {0.0 2.0 2 ------- null}
- -t 0.11 -s 0 -d 1 -p cbr -e 210 -c 0 -i 2 -a 0 -x {0.0 2.0 2 ------- null}
h -t 0.11 -s 0 -d 1 -p cbr -e 210 -c 0 -i 2 -a 0 -x {0.0 2.0 -1 ------- null}
r -t 0.1100084 -s 0 -d 1 -p cbr -e 210 -c 0 -i 0 -a 0 -x {0.0 2.0 0 ------- null}
+ -t 0.1100084 -s 1 -d 2 -p cbr -e 210 -c 0 -i 0 -a 0 -x {0.0 2.0 0 ------- null}
- -t 0.1100084 -s 1 -d 2 -p cbr -e 210 -c 0 -i 0 -a 0 -x {0.0 2.0 0 ------- null}
h -t 0.1100084 -s 1 -d 2 -p cbr -e 210 -c 0 -i 0 -a 0 -x {0.0 2.0 -1 ------- null}
+ -t 0.115 -s 0 -d 1 -p cbr -e 210 -c 0 -i 3 -a 0 -x {0.0 2.0 3 ------- null}
- -t 0.115 -s 0 -d 1 -p cbr -e 210 -c 0 -i 3 -a 0 -x {0.0 2.0 3 ------- null}
h -t 0.115 -s 0 -d 1 -p cbr -e 210 -c 0 -i 3 -a 0 -x {0.0 2.0 -1 ------- null}
r -t 0.1150084 -s 0 -d 1 -p cbr -e 210 -c 0 -i 1 -a 0 -x {0.0 2.0 1 ------- null}
+ -t 0.1150084 -s 1 -d 2 -p cbr -e 210 -c 0 -i 1 -a 0 -x {0.0 2.0 1 ------- null}
- -t 0.1150084 -s 1 -d 2 -p cbr -e 210 -c 0 -i 1 -a 0 -x {0.0 2.0 1 ------- null}
h -t 0.1150084 -s 1 -d 2 -p cbr -e 210 -c 0 -i 1 -a 0 -x {0.0 2.0 -1 ------- null}
+ -t 0.12 -s 0 -d 1 -p cbr -e 210 -c 0 -i 4 -a 0 -x {0.0 2.0 4 ------- null}
- -t 0.12 -s 0 -d 1 -p cbr -e 210 -c 0 -i 4 -a 0 -x {0.0 2.0 4 ------- null}
h -t 0.12 -s 0 -d 1 -p cbr -e 210 -c 0 -i 4 -a 0 -x {0.0 2.0 -1 ------- null}
r -t 0.1200084 -s 0 -d 1 -p cbr -e 210 -c 0 -i 2 -a 0 -x {0.0 2.0 2 ------- null}
+ -t 0.1200084 -s 1 -d 2 -p cbr -e 210 -c 0 -i 2 -a 0 -x {0.0 2.0 2 ------- null}
- -t 0.1200084 -s 1 -d 2 -p cbr -e 210 -c 0 -i 2 -a 0 -x {0.0 2.0 2 ------- null}
h -t 0.1200084 -s 1 -d 2 -p cbr -e 210 -c 0 -i 2 -a 0 -x {0.0 2.0 -1 ------- null}
+ -t 0.125 -s 0 -d 1 -p cbr -e 210 -c 0 -i 5 -a 0 -x {0.0 2.0 5 ------- null}
- -t 0.125 -s 0 -d 1 -p cbr -e 210 -c 0 -i 5 -a 0 -x {0.0 2.0 5 ------- null}
h -t 0.125 -s 0 -d 1 -p cbr -e 210 -c 0 -i 5 -a 0 -x {0.0 2.0 -1 ------- null}
r -t 0.1250084 -s 0 -d 1 -p cbr -e 210 -c 0 -i 3 -a 0 -x {0.0 2.0 3 ------- null}
+ -t 0.1250084 -s 1 -d 2 -p cbr -e 210 -c 0 -i 3 -a 0 -x {0.0 2.0 3 ------- null}
- -t 0.1250084 -s 1 -d 2 -p cbr -e 210 -c 0 -i 3 -a 0 -x {0.0 2.0 3 ------- null}
h -t 0.1250084 -s 1 -d 2 -p cbr -e 210 -c 0 -i 3 -a 0 -x {0.0 2.0 -1 ------- null}
+ -t 0.13 -s 0 -d 1 -p cbr -e 210 -c 0 -i 6 -a 0 -x {0.0 2.0 6 ------- null}
- -t 0.13 -s 0 -d 1 -p cbr -e 210 -c 0 -i 6 -a 0 -x {0.0 2.0 6 ------- null}
h -t 0.13 -s 0 -d 1 -p cbr -e 210 -c 0 -i 6 -a 0 -x {0.0 2.0 -1 ------- null}
r -t 0.1300084 -s 0 -d 1 -p cbr -e 210 -c 0 -i 4 -a 0 -x {0.0 2.0 4 ------- null}
+ -t 0.1300084 -s 1 -d 2 -p cbr -e 210 -c 0 -i 4 -a 0 -x {0.0 2.0 4 ------- null}
- -t 0.1300084 -s 1 -d 2 -p cbr -e 210 -c 0 -i 4 -a 0 -x {0.0 2.0 4 ------- null}
h -t 0.1300084 -s 1 -d 2 -p cbr -e 210 -c 0 -i 4 -a 0 -x {0.0 2.0 -1 ------- null}
+ -t 0.135 -s 0 -d 1 -p cbr -e 210 -c 0 -i 7 -a 0 -x {0.0 2.0 7 ------- null}
- -t 0.135 -s 0 -d 1 -p cbr -e 210 -c 0 -i 7 -a 0 -x {0.0 2.0 7 ------- null}
h -t 0.135 -s 0 -d 1 -p cbr -e 210 -c 0 -i 7 -a 0 -x {0.0 2.0 -1 ------- null}
r -t 0.1350084 -s 0 -d 1 -p cbr -e 210 -c 0 -i 5 -a 0 -x {0.0 2.0 5 ------- null}
+ -t 0.1350084 -s 1 -d 2 -p cbr -e 210 -c 0 -i 5 -a 0 -x {0.0 2.0 5 ------- null}
- -t 0.1350084 -s 1 -d 2 -p cbr -e 210 -c 0 -i 5 -a 0 -x {0.0 2.0 5 ------- null}
h -t 0.1350084 -s 1 -d 2 -p cbr -e 210 -c 0 -i 5 -a 0 -x {0.0 2.0 -1 ------- null}
+ -t 0.14 -s 0 -d 1 -p cbr -e 210 -c 0 -i 8 -a 0 -x {0.0 2.0 8 ------- null}
- -t 0.14 -s 0 -d 1 -p cbr -e 210 -c 0 -i 8 -a 0 -x {0.0 2.0 8 ------- null}
h -t 0.14 -s 0 -d 1 -p cbr -e 210 -c 0 -i 8 -a 0 -x {0.0 2.0 -1 ------- null}
r -t 0.1400084 -s 0 -d 1 -p cbr -e 210 -c 0 -i 6 -a 0 -x {0.0 2.0 6 ------- null}
+ -t 0.1400084 -s 1 -d 2 -p cbr -e 210 -c 0 -i 6 -a 0 -x {0.0 2.0 6 ------- null}
- -t 0.1400084 -s 1 -d 2 -p cbr -e 210 -c 0 -i 6 -a 0 -x {0.0 2.0 6 ------- null}
h -t 0.1400084 -s 1 -d 2 -p cbr -e 210 -c 0 -i 6 -a 0 -x {0.0 2.0 -1 ------- null}
+ -t 0.145 -s 0 -d 1 -p cbr -e 210 -c 0 -i 9 -a 0 -x {0.0 2.0 9 ------- null}
- -t 0.145 -s 0 -d 1 -p cbr -e 210 -c 0 -i 9 -a 0 -x {0.0 2.0 9 ------- null}
h -t 0.145 -s 0 -d 1 -p cbr -e 210 -c 0 -i 9 -a 0 -x {0.0 2.0 -1 ------- null}
r -t 0.1450084 -s 0 -d 1 -p cbr -e 210 -c 0 -i 7 -a 0 -x {0.0 2.0 7 ------- null}
+ -t 0.1450084 -s 1 -d 2 -p cbr -e 210 -c 0 -i 7 -a 0 -x {0.0 2.0 7 ------- null}
- -t 0.1450084 -s 1 -d 2 -p cbr -e 210 -c 0 -i 7 -a 0 -x {0.0 2.0 7 ------- null}
h -t 0.1450084 -s 1 -d 2 -p cbr -e 210 -c 0 -i 7 -a 0 -x {0.0 2.0 -1 ------- null}
+ -t 0.15 -s 0 -d 1 -p cbr -e 210 -c 0 -i 10 -a 0 -x {0.0 2.0 10 ------- null}
- -t 0.15 -s 0 -d 1 -p cbr -e 210 -c 0 -i 10 -a 0 -x {0.0 2.0 10 ------- null}
h -t 0.15 -s 0 -d 1 -p cbr -e 210 -c 0 -i 10 -a 0 -x {0.0 2.0 -1 ------- null}
r -t 0.1500084 -s 0 -d 1 -p cbr -e 210 -c 0 -i 8 -a 0 -x {0.0 2.0 8 ------- null}
+ -t 0.1500084 -s 1 -d 2 -p cbr -e 210 -c 0 -i 8 -a 0 -x {0.0 2.0 8 ------- null}
- -t 0.1500084 -s 1 -d 2 -p cbr -e 210 -c 0 -i 8 -a 0 -x {0.0 2.0 8 ------- null}
h -t 0.1500084 -s 1 -d 2 -p cbr -e 210 -c 0 -i 8 -a 0 -x {0.0 2.0 -1 ------- null}
+ -t 0.155 -s 0 -d 1 -p cbr -e 210 -c 0 -i 11 -a 0 -x {0.0 2.0 11 ------- null}
- -t 0.155 -s 0 -d 1 -p cbr -e 210 -c 0 -i 11 -a 0 -x {0.0 2.0 11 ------- null}
h -t 0.155 -s 0 -d 1 -p cbr -e 210 -c 0 -i 11 -a 0 -x {0.0 2.0 -1 ------- null}
r -t 0.1550084 -s 0 -d 1 -p cbr -e 210 -c 0 -i 9 -a 0 -x {0.0 2.0 9 ------- null}
+ -t 0.1550084 -s 1 -d 2 -p cbr -e 210 -c 0 -i 9 -a 0 -x {0.0 2.0 9 ------- null}
- -t 0.1550084 -s 1 -d 2 -p cbr -e 210 -c 0 -i 9 -a 0 -x {0.0 2.0 9 ------- null}
h -t 0.1550084 -s 1 -d 2 -p cbr -e 210 -c 0 -i 9 -a 0 -x {0.0 2.0 -1 ------- null}
+ -t 0.16 -s 0 -d 1 -p cbr -e 210 -c 0 -i 12 -a 0 -x {0.0 2.0 12 ------- null}
- -t 0.16 -s 0 -d 1 -p cbr -e 210 -c 0 -i 12 -a 0 -x {0.0 2.0 12 ------- null}
h -t 0.16 -s 0 -d 1 -p cbr -e 210 -c 0 -i 12 -a 0 -x {0.0 2.0 -1 ------- null}
r -t 0.1600084 -s 0 -d 1 -p cbr -e 210 -c 0 -i 10 -a 0 -x {0.0 2.0 10 ------- null}
+ -t 0.1600084 -s 1 -d 2 -p cbr -e 210 -c 0 -i 10 -a 0 -x {0.0 2.0 10 ------- null}
- -t 0.1600084 -s 1 -d 2 -p cbr -e 210 -c 0 -i 10 -a 0 -x {0.0 2.0 10 ------- null}
h -t 0.1600084 -s 1 -d 2 -p cbr -e 210 -c 0 -i 10 -a 0 -x {0.0 2.0 -1 ------- null}
+ -t 0.165 -s 0 -d 1 -p cbr -e 210 -c 0 -i 13 -a 0 -x {0.0 2.0 13 ------- null}
- -t 0.165 -s 0 -d 1 -p cbr -e 210 -c 0 -i 13 -a 0 -x {0.0 2.0 13 ------- null}
h -t 0.165 -s 0 -d 1 -p cbr -e 210 -c 0 -i 13 -a 0 -x {0.0 2.0 -1 ------- null}
r -t 0.1650084 -s 0 -d 1 -p cbr -e 210 -c 0 -i 11 -a 0 -x {0.0 2.0 11 ------- null}
+ -t 0.1650084 -s 1 -d 2 -p cbr -e 210 -c 0 -i 11 -a 0 -x {0.0 2.0 11 ------- null}
- -t 0.1650084 -s 1 -d 2 -p cbr -e 210 -c 0 -i 11 -a 0 -x {0.0 2.0 11 ------- null}
h -t 0.1650084 -s 1 -d 2 -p cbr -e 210 -c 0 -i 11 -a 0 -x {0.0 2.0 -1 ------- null}
+ -t 0.17 -s 0 -d 1 -p cbr -e 210 -c 0 -i 14 -a 0 -x {0.0 2.0 14 ------- null}
- -t 0.17 -s 0 -d 1 -p cbr -e 210 -c 0 -i 14 -a 0 -x {0.0 2.0 14 ------- null}
h -t 0.17 -s 0 -d 1 -p cbr -e 210 -c 0 -i 14 -a 0 -x {0.0 2.0 -1 ------- null}
r -t 0.1700084 -s 0 -d 1 -p cbr -e 210 -c 0 -i 12 -a 0 -x {0.0 2.0 12 ------- null}
+ -t 0.1700084 -s 1 -d 2 -p cbr -e 210 -c 0 -i 12 -a 0 -x {0.0 2.0 12 ------- null}
- -t 0.1700084 -s 1 -d 2 -p cbr -e 210 -c 0 -i 12 -a 0 -x {0.0 2.0 12 ------- null}
h -t 0.1700084 -s 1 -d 2 -p cbr -e 210 -c 0 -i 12 -a 0 -x {0.0 2.0 -1 ------- null}
+ -t 0.175 -s 0 -d 1 -p cbr -e 210 -c 0 -i 15 -a 0 -x {0.0 2.0 15 ------- null}
- -t 0.175 -s 0 -d 1 -p cbr -e 210 -c 0 -i 15 -a 0 -x {0.0 2.0 15 ------- null}
h -t 0.175 -s 0 -d 1 -p cbr -e 210 -c 0 -i 15 -a 0 -x {0.0 2.0 -1 ------- null}
r -t 0.1750084 -s 0 -d 1 -p cbr -e 210 -c 0 -i 13 -a 0 -x {0.0 2.0 13 ------- null}
+ -t 0.1750084 -s 1 -d 2 -p cbr -e 210 -c 0 -i 13 -a 0 -x {0.0 2.0 13 ------- null}
- -t 0.1750084 -s 1 -d 2 -p cbr -e 210 -c 0 -i 13 -a 0 -x {0.0 2.0 13 ------- null}
h -t 0.1750084 -s 1 -d 2 -p cbr -e 210 -c 0 -i 13 -a 0 -x {0.0 2.0 -1 ------- null}
+ -t 0.18 -s 0 -d 1 -p cbr -e 210 -c 0 -i 16 -a 0 -x {0.0 2.0 16 ------- null}
- -t 0.18 -s 0 -d 1 -p cbr -e 210 -c 0 -i 16 -a 0 -x {0.0 2.0 16 ------- null}
h -t 0.18 -s 0 -d 1 -p cbr -e 210 -c 0 -i 16 -a 0 -x {0.0 2.0 -1 ------- null}
r -t 0.1800084 -s 0 -d 1 -p cbr -e 210 -c 0 -i 14 -a 0 -x {0.0 2.0 14 ------- null}
+ -t 0.1800084 -s 1 -d 2 -p cbr -e 210 -c 0 -i 14 -a 0 -x {0.0 2.0 14 ------- null}
- -t 0.1800084 -s 1 -d 2 -p cbr -e 210 -c 0 -i 14 -a 0 -x {0.0 2.0 14 ------- null}
h -t 0.1800084 -s 1 -d 2 -p cbr -e 210 -c 0 -i 14 -a 0 -x {0.0 2.0 -1 ------- null}
+ -t 0.185 -s 0 -d 1 -p cbr -e 210 -c 0 -i 17 -a 0 -x {0.0 2.0 17 ------- null}
- -t 0.185 -s 0 -d 1 -p cbr -e 210 -c 0 -i 17 -a 0 -x {0.0 2.0 17 ------- null}
h -t 0.185 -s 0 -d 1 -p cbr -e 210 -c 0 -i 17 -a 0 -x {0.0 2.0 -1 ------- null}
r -t 0.1850084 -s 0 -d 1 -p cbr -e 210 -c 0 -i 15 -a 0 -x {0.0 2.0 15 ------- null}
+ -t 0.1850084 -s 1 -d 2 -p cbr -e 210 -c 0 -i 15 -a 0 -x {0.0 2.0 15 ------- null}
- -t 0.1850084 -s 1 -d 2 -p cbr -e 210 -c 0 -i 15 -a 0 -x {0.0 2.0 15 ------- null}
h -t 0.1850084 -s 1 -d 2 -p cbr -e 210 -c 0 -i 15 -a 0 -x {0.0 2.0 -1 ------- null}
+ -t 0.19 -s 0 -d 1 -p cbr -e 210 -c 0 -i 18 -a 0 -x {0.0 2.0 18 ------- null}
- -t 0.19 -s 0 -d 1 -p cbr -e 210 -c 0 -i 18 -a 0 -x {0.0 2.0 18 ------- null}
h -t 0.19 -s 0 -d 1 -p cbr -e 210 -c 0 -i 18 -a 0 -x {0.0 2.0 -1 ------- null}
r -t 0.1900084 -s 0 -d 1 -p cbr -e 210 -c 0 -i 16 -a 0 -x {0.0 2.0 16 ------- null}
+ -t 0.1900084 -s 1 -d 2 -p cbr -e 210 -c 0 -i 16 -a 0 -x {0.0 2.0 16 ------- null}
- -t 0.1900084 -s 1 -d 2 -p cbr -e 210 -c 0 -i 16 -a 0 -x {0.0 2.0 16 ------- null}
h -t 0.1900084 -s 1 -d 2 -p cbr -e 210 -c 0 -i 16 -a 0 -x {0.0 2.0 -1 ------- null}
+ -t 0.195 -s 0 -d 1 -p cbr -e 210 -c 0 -i 19 -a 0 -x {0.0 2.0 19 ------- null}
- -t 0.195 -s 0 -d 1 -p cbr -e 210 -c 0 -i 19 -a 0 -x {0.0 2.0 19 ------- null}
h -t 0.195 -s 0 -d 1 -p cbr -e 210 -c 0 -i 19 -a 0 -x {0.0 2.0 -1 ------- null}
r -t 0.1950084 -s 0 -d 1 -p cbr -e 210 -c 0 -i 17 -a 0 -x {0.0 2.0 17 ------- null}
+ -t 0.1950084 -s 1 -d 2 -p cbr -e 210 -c 0 -i 17 -a 0 -x {0.0 2.0 17 ------- null}
- -t 0.1950084 -s 1 -d 2 -p cbr -e 210 -c 0 -i 17 -a 0 -x {0.0 2.0 17 ------- null}
h -t 0.1950084 -s 1 -d 2 -p cbr -e 210 -c 0 -i 17 -a 0 -x {0.0 2.0 -1 ------- null}
+ -t 0.2 -s 0 -d 1 -p cbr -e 210 -c 0 -i 20 -a 0 -x {0.0 2.0 20 ------- null}
- -t 0.2 -s 0 -d 1 -p cbr -e 210 -c 0 -i 20 -a 0 -x {0.0 2.0 20 ------- null}
h -t 0.2 -s 0 -d 1 -p cbr -e 210 -c 0 -i 20 -a 0 -x {0.0 2.0 -1 ------- null}
r -t 0.2000084 -s 0 -d 1 -p cbr -e 210 -c 0 -i 18 -a 0 -x {0.0 2.0 18 ------- null}
+ -t 0.2000084 -s 1 -d 2 -p cbr -e 210 -c 0 -i 18 -a 0 -x {0.0 2.0 18 ------- null}
- -t 0.2000084 -s 1 -d 2 -p cbr -e 210 -c 0 -i 18 -a 0 -x {0.0 2.0 18 ------- null}
h -t 0.2000084 -s 1 -d 2 -p cbr -e 210 -c 0 -i 18 -a 0 -x {0.0 2.0 -1 ------- null}
+ -t 0.205 -s 0 -d 1 -p cbr -e 210 -c 0 -i 21 -a 0 -x {0.0 2.0 21 ------- null}
- -t 0.205 -s 0 -d 1 -p cbr -e 210 -c 0 -i 21 -a 0 -x {0.0 2.0 21 ------- null}
h -t 0.205 -s 0 -d 1 -p cbr -e 210 -c 0 -i 21 -a 0 -x {0.0 2.0 -1 ------- null}
r -t 0.2050084 -s 0 -d 1 -p cbr -e 210 -c 0 -i 19 -a 0 -x {0.0 2.0 19 ------- null}
+ -t 0.2050084 -s 1 -d 2 -p cbr -e 210 -c 0 -i 19 -a 0 -x {0.0 2.0 19 ------- null}
- -t 0.2050084 -s 1 -d 2 -p cbr -e 210 -c 0 -i 19 -a 0 -x {0.0 2.0 19 ------- null}
h -t 0.2050084 -s 1 -d 2 -p cbr -e 210 -c 0 -i 19 -a 0 -x {0.0 2.0 -1 ------- null}
+ -t 0.21 -s 0 -d 1 -p cbr -e 210 -c 0 -i 22 -a 0 -x {0.0 2.0 22 ------- null}
- -t 0.21 -s 0 -d 1 -p cbr -e 210 -c 0 -i 22 -a 0 -x {0.0 2.0 22 ------- null}
h -t 0.21 -s 0 -d 1 -p cbr -e 210 -c 0 -i 22 -a 0 -x {0.0 2.0 -1 ------- null}
r -t 0.2100084 -s 0 -d 1 -p cbr -e 210 -c 0 -i 20 -a 0 -x {0.0 2.0 20 ------- null}
+ -t 0.2100084 -s 1 -d 2 -p cbr -e 210 -c 0 -i 20 -a 0 -x {0.0 2.0 20 ------- null}
- -t 0.2100084 -s 1 -d 2 -p cbr -e 210 -c 0 -i 20 -a 0 -x {0.0 2.0 20 ------- null}
h -t 0.2100084 -s 1 -d 2 -p cbr -e 210 -c 0 -i 20 -a 0 -x {0.0 2.0 -1 ------- null}
+ -t 0.215 -s 0 -d 1 -p cbr -e 210 -c 0 -i 23 -a 0 -x {0.0 2.0 23 ------- null}
- -t 0.215 -s 0 -d 1 -p cbr -e 210 -c 0 -i 23 -a 0 -x {0.0 2.0 23 ------- null}
h -t 0.215 -s 0 -d 1 -p cbr -e 210 -c 0 -i 23 -a 0 -x {0.0 2.0 -1 ------- null}
r -t 0.2150084 -s 0 -d 1 -p cbr -e 210 -c 0 -i 21 -a 0 -x {0.0 2.0 21 ------- null}
+ -t 0.2150084 -s 1 -d 2 -p cbr -e 210 -c 0 -i 21 -a 0 -x {0.0 2.0 21 ------- null}
- -t 0.2150084 -s 1 -d 2 -p cbr -e 210 -c 0 -i 21 -a 0 -x {0.0 2.0 21 ------- null}
h -t 0.2150084 -s 1 -d 2 -p cbr -e 210 -c 0 -i 21 -a 0 -x {0.0 2.0 -1 ------- null}
+ -t 0.22 -s 0 -d 1 -p cbr -e 210 -c 0 -i 24 -a 0 -x {0.0 2.0 24 ------- null}
- -t 0.22 -s 0 -d 1 -p cbr -e 210 -c 0 -i 24 -a 0 -x {0.0 2.0 24 ------- null}
h -t 0.22 -s 0 -d 1 -p cbr -e 210 -c 0 -i 24 -a 0 -x {0.0 2.0 -1 ------- null}
r -t 0.2200084 -s 0 -d 1 -p cbr -e 210 -c 0 -i 22 -a 0 -x {0.0 2.0 22 ------- null}
+ -t 0.2200084 -s 1 -d 2 -p cbr -e 210 -c 0 -i 22 -a 0 -x {0.0 2.0 22 ------- null}
- -t 0.2200084 -s 1 -d 2 -p cbr -e 210 -c 0 -i 22 -a 0 -x {0.0 2.0 22 ------- null}
h -t 0.2200084 -s 1 -d 2 -p cbr -e 210 -c 0 -i 22 -a 0 -x {0.0 2.0 -1 ------- null}
+ -t 0.225 -s 0 -d 1 -p cbr -e 210 -c 0 -i 25 -a 0 -x {0.0 2.0 25 ------- null}
- -t 0.225 -s 0 -d 1 -p cbr -e 210 -c 0 -i 25 -a 0 -x {0.0 2.0 25 ------- null}
h -t 0.225 -s 0 -d 1 -p cbr -e 210 -c 0 -i 25 -a 0 -x {0.0 2.0 -1 ------- null}
r -t 0.2250084 -s 0 -d 1 -p cbr -e 210 -c 0 -i 23 -a 0 -x {0.0 2.0 23 ------- null}
+ -t 0.2250084 -s 1 -d 2 -p cbr -e 210 -c 0 -i 23 -a 0 -x {0.0 2.0 23 ------- null}
- -t 0.2250084 -s 1 -d 2 -p cbr -e 210 -c 0 -i 23 -a 0 -x {0.0 2.0 23 ------- null}
h -t 0.2250084 -s 1 -d 2 -p cbr -e 210 -c 0 -i 23 -a 0 -x {0.0 2.0 -1 ------- null}
+ -t 0.23 -s 0 -d 1 -p cbr -e 210 -c 0 -i 26 -a 0 -x {0.0 2.0 26 ------- null}
- -t 0.23 -s 0 -d 1 -p cbr -e 210 -c 0 -i 26 -a 0 -x {0.0 2.0 26 ------- null}
h -t 0.23 -s 0 -d 1 -p cbr -e 210 -c 0 -i 26 -a 0 -x {0.0 2.0 -1 ------- null}
r -t 0.2300084 -s 0 -d 1 -p cbr -e 210 -c 0 -i 24 -a 0 -x {0.0 2.0 24 ------- null}
+ -t 0.2300084 -s 1 -d 2 -p cbr -e 210 -c 0 -i 24 -a 0 -x {0.0 2.0 24 ------- null}
- -t 0.2300084 -s 1 -d 2 -p cbr -e 210 -c 0 -i 24 -a 0 -x {0.0 2.0 24 ------- null}
h -t 0.2300084 -s 1 -d 2 -p cbr -e 210 -c 0 -i 24 -a 0 -x {0.0 2.0 -1 ------- null}
+ -t 0.235 -s 0 -d 1 -p cbr -e 210 -c 0 -i 27 -a 0 -x {0.0 2.0 27 ------- null}
- -t 0.235 -s 0 -d 1 -p cbr -e 210 -c 0 -i 27 -a 0 -x {0.0 2.0 27 ------- null}
h -t 0.235 -s 0 -d 1 -p cbr -e 210 -c 0 -i 27 -a 0 -x {0.0 2.0 -1 ------- null}
r -t 0.2350084 -s 0 -d 1 -p cbr -e 210 -c 0 -i 25 -a 0 -x {0.0 2.0 25 ------- null}
+ -t 0.2350084 -s 1 -d 2 -p cbr -e 210 -c 0 -i 25 -a 0 -x {0.0 2.0 25 ------- null}
- -t 0.2350084 -s 1 -d 2 -p cbr -e 210 -c 0 -i 25 -a 0 -x {0.0 2.0 25 ------- null}
h -t 0.2350084 -s 1 -d 2 -p cbr -e 210 -c 0 -i 25 -a 0 -x {0.0 2.0 -1 ------- null}
+ -t 0.24 -s 0 -d 1 -p cbr -e 210 -c 0 -i 28 -a 0 -x {0.0 2.0 28 ------- null}
- -t 0.24 -s 0 -d 1 -p cbr -e 210 -c 0 -i 28 -a 0 -x {0.0 2.0 28 ------- null}
h -t 0.24 -s 0 -d 1 -p cbr -e 210 -c 0 -i 28 -a 0 -x {0.0 2.0 -1 ------- null}
r -t 0.2400084 -s 0 -d 1 -p cbr -e 210 -c 0 -i 26 -a 0 -x {0.0 2.0 26 ------- null}
+ -t 0.2400084 -s 1 -d 2 -p cbr -e 210 -c 0 -i 26 -a 0 -x {0.0 2.0 26 ------- null}
- -t 0.2400084 -s 1 -d 2 -p cbr -e 210 -c 0 -i 26 -a 0 -x {0.0 2.0 26 ------- null}
h -t 0.2400084 -s 1 -d 2 -p cbr -e 210 -c 0 -i 26 -a 0 -x {0.0 2.0 -1 ------- null}
+ -t 0.245 -s 0 -d 1 -p cbr -e 210 -c 0 -i 29 -a 0 -x {0.0 2.0 29 ------- null}
- -t 0.245 -s 0 -d 1 -p cbr -e 210 -c 0 -i 29 -a 0 -x {0.0 2.0 29 ------- null}
h -t 0.245 -s 0 -d 1 -p cbr -e 210 -c 0 -i 29 -a 0 -x {0.0 2.0 -1 ------- null}
r -t 0.2450084 -s 0 -d 1 -p cbr -e 210 -c 0 -i 27 -a 0 -x {0.0 2.0 27 ------- null}
+ -t 0.2450084 -s 1 -d 2 -p cbr -e 210 -c 0 -i 27 -a 0 -x {0.0 2.0 27 ------- null}
- -t 0.2450084 -s 1 -d 2 -p cbr -e 210 -c 0 -i 27 -a 0 -x {0.0 2.0 27 ------- null}
h -t 0.2450084 -s 1 -d 2 -p cbr -e 210 -c 0 -i 27 -a 0 -x {0.0 2.0 -1 ------- null}
+ -t 0.25 -s 0 -d 1 -p cbr -e 210 -c 0 -i 30 -a 0 -x {0.0 2.0 30 ------- null}
- -t 0.25 -s 0 -d 1 -p cbr -e 210 -c 0 -i 30 -a 0 -x {0.0 2.0 30 ------- null}
h -t 0.25 -s 0 -d 1 -p cbr -e 210 -c 0 -i 30 -a 0 -x {0.0 2.0 -1 ------- null}
r -t 0.2500084 -s 0 -d 1 -p cbr -e 210 -c 0 -i 28 -a 0 -x {0.0 2.0 28 ------- null}
+ -t 0.2500084 -s 1 -d 2 -p cbr -e 210 -c 0 -i 28 -a 0 -x {0.0 2.0 28 ------- null}
- -t 0.2500084 -s 1 -d 2 -p cbr -e 210 -c 0 -i 28 -a 0 -x {0.0 2.0 28 ------- null}
h -t 0.2500084 -s 1 -d 2 -p cbr -e 210 -c 0 -i 28 -a 0 -x {0.0 2.0 -1 ------- null}
+ -t 0.255 -s 0 -d 1 -p cbr -e 210 -c 0 -i 31 -a 0 -x {0.0 2.0 31 ------- null}
- -t 0.255 -s 0 -d 1 -p cbr -e 210 -c 0 -i 31 -a 0 -x {0.0 2.0 31 ------- null}
h -t 0.255 -s 0 -d 1 -p cbr -e 210 -c 0 -i 31 -a 0 -x {0.0 2.0 -1 ------- null}
r -t 0.2550084 -s 0 -d 1 -p cbr -e 210 -c 0 -i 29 -a 0 -x {0.0 2.0 29 ------- null}
+ -t 0.2550084 -s 1 -d 2 -p cbr -e 210 -c 0 -i 29 -a 0 -x {0.0 2.0 29 ------- null}
- -t 0.2550084 -s 1 -d 2 -p cbr -e 210 -c 0 -i 29 -a 0 -x {0.0 2.0 29 ------- null}
h -t 0.2550084 -s 1 -d 2 -p cbr -e 210 -c 0 -i 29 -a 0 -x {0.0 2.0 -1 ------- null}
+ -t 0.26 -s 0 -d 1 -p cbr -e 210 -c 0 -i 32 -a 0 -x {0.0 2.0 32 ------- null}
- -t 0.26 -s 0 -d 1 -p cbr -e 210 -c 0 -i 32 -a 0 -x {0.0 2.0 32 ------- null}
h -t 0.26 -s 0 -d 1 -p cbr -e 210 -c 0 -i 32 -a 0 -x {0.0 2.0 -1 ------- null}
r -t 0.2600084 -s 0 -d 1 -p cbr -e 210 -c 0 -i 30 -a 0 -x {0.0 2.0 30 ------- null}
+ -t 0.2600084 -s 1 -d 2 -p cbr -e 210 -c 0 -i 30 -a 0 -x {0.0 2.0 30 ------- null}
- -t 0.2600084 -s 1 -d 2 -p cbr -e 210 -c 0 -i 30 -a 0 -x {0.0 2.0 30 ------- null}
h -t 0.2600084 -s 1 -d 2 -p cbr -e 210 -c 0 -i 30 -a 0 -x {0.0 2.0 -1 ------- null}
+ -t 0.265 -s 0 -d 1 -p cbr -e 210 -c 0 -i 33 -a 0 -x {0.0 2.0 33 ------- null}
- -t 0.265 -s 0 -d 1 -p cbr -e 210 -c 0 -i 33 -a 0 -x {0.0 2.0 33 ------- null}
h -t 0.265 -s 0 -d 1 -p cbr -e 210 -c 0 -i 33 -a 0 -x {0.0 2.0 -1 ------- null}
r -t 0.2650084 -s 0 -d 1 -p cbr -e 210 -c 0 -i 31 -a 0 -x {0.0 2.0 31 ------- null}
+ -t 0.2650084 -s 1 -d 2 -p cbr -e 210 -c 0 -i 31 -a 0 -x {0.0 2.0 31 ------- null}
- -t 0.2650084 -s 1 -d 2 -p cbr -e 210 -c 0 -i 31 -a 0 -x {0.0 2.0 31 ------- null}
h -t 0.2650084 -s 1 -d 2 -p cbr -e 210 -c 0 -i 31 -a 0 -x {0.0 2.0 -1 ------- null}
+ -t 0.27 -s 0 -d 1 -p cbr -e 210 -c 0 -i 34 -a 0 -x {0.0 2.0 34 ------- null}
- -t 0.27 -s 0 -d 1 -p cbr -e 210 -c 0 -i 34 -a 0 -x {0.0 2.0 34 ------- null}
h -t 0.27 -s 0 -d 1 -p cbr -e 210 -c 0 -i 34 -a 0 -x {0.0 2.0 -1 ------- null}
r -t 0.2700084 -s 0 -d 1 -p cbr -e 210 -c 0 -i 32 -a 0 -x {0.0 2.0 32 ------- null}
+ -t 0.2700084 -s 1 -d 2 -p cbr -e 210 -c 0 -i 32 -a 0 -x {0.0 2.0 32 ------- null}
- -t 0.2700084 -s 1 -d 2 -p cbr -e 210 -c 0 -i 32 -a 0 -x {0.0 2.0 32 ------- null}
h -t 0.2700084 -s 1 -d 2 -p cbr -e 210 -c 0 -i 32 -a 0 -x {0.0 2.0 -1 ------- null}
+ -t 0.275 -s 0 -d 1 -p cbr -e 210 -c 0 -i 35 -a 0 -x {0.0 2.0 35 ------- null}
- -t 0.275 -s 0 -d 1 -p cbr -e 210 -c 0 -i 35 -a 0 -x {0.0 2.0 35 ------- null}
h -t 0.275 -s 0 -d 1 -p cbr -e 210 -c 0 -i 35 -a 0 -x {0.0 2.0 -1 ------- null}
r -t 0.2750084 -s 0 -d 1 -p cbr -e 210 -c 0 -i 33 -a 0 -x {0.0 2.0 33 ------- null}
+ -t 0.2750084 -s 1 -d 2 -p cbr -e 210 -c 0 -i 33 -a 0 -x {0.0 2.0 33 ------- null}
- -t 0.2750084 -s 1 -d 2 -p cbr -e 210 -c 0 -i 33 -a 0 -x {0.0 2.0 33 ------- null}
h -t 0.2750084 -s 1 -d 2 -p cbr -e 210 -c 0 -i 33 -a 0 -x {0.0 2.0 -1 ------- null}
+ -t 0.28 -s 0 -d 1 -p cbr -e 210 -c 0 -i 36 -a 0 -x {0.0 2.0 36 ------- null}
- -t 0.28 -s 0 -d 1 -p cbr -e 210 -c 0 -i 36 -a 0 -x {0.0 2.0 36 ------- null}
h -t 0.28 -s 0 -d 1 -p cbr -e 210 -c 0 -i 36 -a 0 -x {0.0 2.0 -1 ------- null}
r -t 0.2800084 -s 0 -d 1 -p cbr -e 210 -c 0 -i 34 -a 0 -x {0.0 2.0 34 ------- null}
+ -t 0.2800084 -s 1 -d 2 -p cbr -e 210 -c 0 -i 34 -a 0 -x {0.0 2.0 34 ------- null}
- -t 0.2800084 -s 1 -d 2 -p cbr -e 210 -c 0 -i 34 -a 0 -x {0.0 2.0 34 ------- null}
h -t 0.2800084 -s 1 -d 2 -p cbr -e 210 -c 0 -i 34 -a 0 -x {0.0 2.0 -1 ------- null}
+ -t 0.285 -s 0 -d 1 -p cbr -e 210 -c 0 -i 37 -a 0 -x {0.0 2.0 37 ------- null}
- -t 0.285 -s 0 -d 1 -p cbr -e 210 -c 0 -i 37 -a 0 -x {0.0 2.0 37 ------- null}
h -t 0.285 -s 0 -d 1 -p cbr -e 210 -c 0 -i 37 -a 0 -x {0.0 2.0 -1 ------- null}
r -t 0.2850084 -s 0 -d 1 -p cbr -e 210 -c 0 -i 35 -a 0 -x {0.0 2.0 35 ------- null}
+ -t 0.2850084 -s 1 -d 2 -p cbr -e 210 -c 0 -i 35 -a 0 -x {0.0 2.0 35 ------- null}
- -t 0.2850084 -s 1 -d 2 -p cbr -e 210 -c 0 -i 35 -a 0 -x {0.0 2.0 35 ------- null}
h -t 0.2850084 -s 1 -d 2 -p cbr -e 210 -c 0 -i 35 -a 0 -x {0.0 2.0 -1 ------- null}
+ -t 0.29 -s 0 -d 1 -p cbr -e 210 -c 0 -i 38 -a 0 -x {0.0 2.0 38 ------- null}
- -t 0.29 -s 0 -d 1 -p cbr -e 210 -c 0 -i 38 -a 0 -x {0.0 2.0 38 ------- null}
h -t 0.29 -s 0 -d 1 -p cbr -e 210 -c 0 -i 38 -a 0 -x {0.0 2.0 -1 ------- null}
r -t 0.2900084 -s 0 -d 1 -p cbr -e 210 -c 0 -i 36 -a 0 -x {0.0 2.0 36 ------- null}
+ -t 0.2900084 -s 1 -d 2 -p cbr -e 210 -c 0 -i 36 -a 0 -x {0.0 2.0 36 ------- null}
- -t 0.2900084 -s 1 -d 2 -p cbr -e 210 -c 0 -i 36 -a 0 -x {0.0 2.0 36 ------- null}
h -t 0.2900084 -s 1 -d 2 -p cbr -e 210 -c 0 -i 36 -a 0 -x {0.0 2.0 -1 ------- null}
+ -t 0.295 -s 0 -d 1 -p cbr -e 210 -c 0 -i 39 -a 0 -x {0.0 2.0 39 ------- null}
- -t 0.295 -s 0 -d 1 -p cbr -e 210 -c 0 -i 39 -a 0 -x {0.0 2.0 39 ------- null}
h -t 0.295 -s 0 -d 1 -p cbr -e 210 -c 0 -i 39 -a 0 -x {0.0 2.0 -1 ------- null}
r -t 0.2950084 -s 0 -d 1 -p cbr -e 210 -c 0 -i 37 -a 0 -x {0.0 2.0 37 ------- null}
+ -t 0.2950084 -s 1 -d 2 -p cbr -e 210 -c 0 -i 37 -a 0 -x {0.0 2.0 37 ------- null}
- -t 0.2950084 -s 1 -d 2 -p cbr -e 210 -c 0 -i 37 -a 0 -x {0.0 2.0 37 ------- null}
h -t 0.2950084 -s 1 -d 2 -p cbr -e 210 -c 0 -i 37 -a 0 -x {0.0 2.0 -1 ------- null}
+ -t 0.3 -s 0 -d 1 -p cbr -e 210 -c 0 -i 40 -a 0 -x {0.0 2.0 40 ------- null}
- -t 0.3 -s 0 -d 1 -p cbr -e 210 -c 0 -i 40 -a 0 -x {0.0 2.0 40 ------- null}
h -t 0.3 -s 0 -d 1 -p cbr -e 210 -c 0 -i 40 -a 0 -x {0.0 2.0 -1 ------- null}
r -t 0.3000084 -s 0 -d 1 -p cbr -e 210 -c 0 -i 38 -a 0 -x {0.0 2.0 38 ------- null}
+ -t 0.3000084 -s 1 -d 2 -p cbr -e 210 -c 0 -i 38 -a 0 -x {0.0 2.0 38 ------- null}
- -t 0.3000084 -s 1 -d 2 -p cbr -e 210 -c 0 -i 38 -a 0 -x {0.0 2.0 38 ------- null}
h -t 0.3000084 -s 1 -d 2 -p cbr -e 210 -c 0 -i 38 -a 0 -x {0.0 2.0 -1 ------- null}
+ -t 0.305 -s 0 -d 1 -p cbr -e 210 -c 0 -i 41 -a 0 -x {0.0 2.0 41 ------- null}
- -t 0.305 -s 0 -d 1 -p cbr -e 210 -c 0 -i 41 -a 0 -x {0.0 2.0 41 ------- null}
h -t 0.305 -s 0 -d 1 -p cbr -e 210 -c 0 -i 41 -a 0 -x {0.0 2.0 -1 ------- null}
r -t 0.3050084 -s 0 -d 1 -p cbr -e 210 -c 0 -i 39 -a 0 -x {0.0 2.0 39 ------- null}
+ -t 0.3050084 -s 1 -d 2 -p cbr -e 210 -c 0 -i 39 -a 0 -x {0.0 2.0 39 ------- null}
- -t 0.3050084 -s 1 -d 2 -p cbr -e 210 -c 0 -i 39 -a 0 -x {0.0 2.0 39 ------- null}
h -t 0.3050084 -s 1 -d 2 -p cbr -e 210 -c 0 -i 39 -a 0 -x {0.0 2.0 -1 ------- null}
+ -t 0.31 -s 0 -d 1 -p cbr -e 210 -c 0 -i 42 -a 0 -x {0.0 2.0 42 ------- null}
- -t 0.31 -s 0 -d 1 -p cbr -e 210 -c 0 -i 42 -a 0 -x {0.0 2.0 42 ------- null}
h -t 0.31 -s 0 -d 1 -p cbr -e 210 -c 0 -i 42 -a 0 -x {0.0 2.0 -1 ------- null}
r -t 0.3100084 -s 0 -d 1 -p cbr -e 210 -c 0 -i 40 -a 0 -x {0.0 2.0 40 ------- null}
+ -t 0.3100084 -s 1 -d 2 -p cbr -e 210 -c 0 -i 40 -a 0 -x {0.0 2.0 40 ------- null}
- -t 0.3100084 -s 1 -d 2 -p cbr -e 210 -c 0 -i 40 -a 0 -x {0.0 2.0 40 ------- null}
h -t 0.3100084 -s 1 -d 2 -p cbr -e 210 -c 0 -i 40 -a 0 -x {0.0 2.0 -1 ------- null}
+ -t 0.315 -s 0 -d 1 -p cbr -e 210 -c 0 -i 43 -a 0 -x {0.0 2.0 43 ------- null}
- -t 0.315 -s 0 -d 1 -p cbr -e 210 -c 0 -i 43 -a 0 -x {0.0 2.0 43 ------- null}
h -t 0.315 -s 0 -d 1 -p cbr -e 210 -c 0 -i 43 -a 0 -x {0.0 2.0 -1 ------- null}
r -t 0.3150084 -s 0 -d 1 -p cbr -e 210 -c 0 -i 41 -a 0 -x {0.0 2.0 41 ------- null}
+ -t 0.3150084 -s 1 -d 2 -p cbr -e 210 -c 0 -i 41 -a 0 -x {0.0 2.0 41 ------- null}
- -t 0.3150084 -s 1 -d 2 -p cbr -e 210 -c 0 -i 41 -a 0 -x {0.0 2.0 41 ------- null}
h -t 0.3150084 -s 1 -d 2 -p cbr -e 210 -c 0 -i 41 -a 0 -x {0.0 2.0 -1 ------- null}
+ -t 0.32 -s 0 -d 1 -p cbr -e 210 -c 0 -i 44 -a 0 -x {0.0 2.0 44 ------- null}
- -t 0.32 -s 0 -d 1 -p cbr -e 210 -c 0 -i 44 -a 0 -x {0.0 2.0 44 ------- null}
h -t 0.32 -s 0 -d 1 -p cbr -e 210 -c 0 -i 44 -a 0 -x {0.0 2.0 -1 ------- null}
r -t 0.3200084 -s 0 -d 1 -p cbr -e 210 -c 0 -i 42 -a 0 -x {0.0 2.0 42 ------- null}
+ -t 0.3200084 -s 1 -d 2 -p cbr -e 210 -c 0 -i 42 -a 0 -x {0.0 2.0 42 ------- null}
- -t 0.3200084 -s 1 -d 2 -p cbr -e 210 -c 0 -i 42 -a 0 -x {0.0 2.0 42 ------- null}
h -t 0.3200084 -s 1 -d 2 -p cbr -e 210 -c 0 -i 42 -a 0 -x {0.0 2.0 -1 ------- null}
+ -t 0.325 -s 0 -d 1 -p cbr -e 210 -c 0 -i 45 -a 0 -x {0.0 2.0 45 ------- null}
- -t 0.325 -s 0 -d 1 -p cbr -e 210 -c 0 -i 45 -a 0 -x {0.0 2.0 45 ------- null}
h -t 0.325 -s 0 -d 1 -p cbr -e 210 -c 0 -i 45 -a 0 -x {0.0 2.0 -1 ------- null}
r -t 0.3250084 -s 0 -d 1 -p cbr -e 210 -c 0 -i 43 -a 0 -x {0.0 2.0 43 ------- null}
+ -t 0.3250084 -s 1 -d 2 -p cbr -e 210 -c 0 -i 43 -a 0 -x {0.0 2.0 43 ------- null}
- -t 0.3250084 -s 1 -d 2 -p cbr -e 210 -c 0 -i 43 -a 0 -x {0.0 2.0 43 ------- null}
h -t 0.3250084 -s 1 -d 2 -p cbr -e 210 -c 0 -i 43 -a 0 -x {0.0 2.0 -1 ------- null}
+ -t 0.33 -s 0 -d 1 -p cbr -e 210 -c 0 -i 46 -a 0 -x {0.0 2.0 46 ------- null}
- -t 0.33 -s 0 -d 1 -p cbr -e 210 -c 0 -i 46 -a 0 -x {0.0 2.0 46 ------- null}
h -t 0.33 -s 0 -d 1 -p cbr -e 210 -c 0 -i 46 -a 0 -x {0.0 2.0 -1 ------- null}
r -t 0.3300084 -s 0 -d 1 -p cbr -e 210 -c 0 -i 44 -a 0 -x {0.0 2.0 44 ------- null}
+ -t 0.3300084 -s 1 -d 2 -p cbr -e 210 -c 0 -i 44 -a 0 -x {0.0 2.0 44 ------- null}
- -t 0.3300084 -s 1 -d 2 -p cbr -e 210 -c 0 -i 44 -a 0 -x {0.0 2.0 44 ------- null}
h -t 0.3300084 -s 1 -d 2 -p cbr -e 210 -c 0 -i 44 -a 0 -x {0.0 2.0 -1 ------- null}
+ -t 0.335 -s 0 -d 1 -p cbr -e 210 -c 0 -i 47 -a 0 -x {0.0 2.0 47 ------- null}
- -t 0.335 -s 0 -d 1 -p cbr -e 210 -c 0 -i 47 -a 0 -x {0.0 2.0 47 ------- null}
h -t 0.335 -s 0 -d 1 -p cbr -e 210 -c 0 -i 47 -a 0 -x {0.0 2.0 -1 ------- null}
r -t 0.3350084 -s 0 -d 1 -p cbr -e 210 -c 0 -i 45 -a 0 -x {0.0 2.0 45 ------- null}
+ -t 0.3350084 -s 1 -d 2 -p cbr -e 210 -c 0 -i 45 -a 0 -x {0.0 2.0 45 ------- null}
- -t 0.3350084 -s 1 -d 2 -p cbr -e 210 -c 0 -i 45 -a 0 -x {0.0 2.0 45 ------- null}
h -t 0.3350084 -s 1 -d 2 -p cbr -e 210 -c 0 -i 45 -a 0 -x {0.0 2.0 -1 ------- null}
+ -t 0.34 -s 0 -d 1 -p cbr -e 210 -c 0 -i 48 -a 0 -x {0.0 2.0 48 ------- null}
- -t 0.34 -s 0 -d 1 -p cbr -e 210 -c 0 -i 48 -a 0 -x {0.0 2.0 48 ------- null}
h -t 0.34 -s 0 -d 1 -p cbr -e 210 -c 0 -i 48 -a 0 -x {0.0 2.0 -1 ------- null}
r -t 0.3400084 -s 0 -d 1 -p cbr -e 210 -c 0 -i 46 -a 0 -x {0.0 2.0 46 ------- null}
+ -t 0.3400084 -s 1 -d 2 -p cbr -e 210 -c 0 -i 46 -a 0 -x {0.0 2.0 46 ------- null}
- -t 0.3400084 -s 1 -d 2 -p cbr -e 210 -c 0 -i 46 -a 0 -x {0.0 2.0 46 ------- null}
h -t 0.3400084 -s 1 -d 2 -p cbr -e 210 -c 0 -i 46 -a 0 -x {0.0 2.0 -1 ------- null}
+ -t 0.345 -s 0 -d 1 -p cbr -e 210 -c 0 -i 49 -a 0 -x {0.0 2.0 49 ------- null}
- -t 0.345 -s 0 -d 1 -p cbr -e 210 -c 0 -i 49 -a 0 -x {0.0 2.0 49 ------- null}
h -t 0.345 -s 0 -d 1 -p cbr -e 210 -c 0 -i 49 -a 0 -x {0.0 2.0 -1 ------- null}
r -t 0.3450084 -s 0 -d 1 -p cbr -e 210 -c 0 -i 47 -a 0 -x {0.0 2.0 47 ------- null}
+ -t 0.3450084 -s 1 -d 2 -p cbr -e 210 -c 0 -i 47 -a 0 -x {0.0 2.0 47 ------- null}
- -t 0.3450084 -s 1 -d 2 -p cbr -e 210 -c 0 -i 47 -a 0 -x {0.0 2.0 47 ------- null}
h -t 0.3450084 -s 1 -d 2 -p cbr -e 210 -c 0 -i 47 -a 0 -x {0.0 2.0 -1 ------- null}
+ -t 0.35 -s 0 -d 1 -p cbr -e 210 -c 0 -i 50 -a 0 -x {0.0 2.0 50 ------- null}
- -t 0.35 -s 0 -d 1 -p cbr -e 210 -c 0 -i 50 -a 0 -x {0.0 2.0 50 ------- null}
h -t 0.35 -s 0 -d 1 -p cbr -e 210 -c 0 -i 50 -a 0 -x {0.0 2.0 -1 ------- null}
r -t 0.3500084 -s 0 -d 1 -p cbr -e 210 -c 0 -i 48 -a 0 -x {0.0 2.0 48 ------- null}
+ -t 0.3500084 -s 1 -d 2 -p cbr -e 210 -c 0 -i 48 -a 0 -x {0.0 2.0 48 ------- null}
- -t 0.3500084 -s 1 -d 2 -p cbr -e 210 -c 0 -i 48 -a 0 -x {0.0 2.0 48 ------- null}
h -t 0.3500084 -s 1 -d 2 -p cbr -e 210 -c 0 -i 48 -a 0 -x {0.0 2.0 -1 ------- null}
+ -t 0.355 -s 0 -d 1 -p cbr -e 210 -c 0 -i 51 -a 0 -x {0.0 2.0 51 ------- null}
- -t 0.355 -s 0 -d 1 -p cbr -e 210 -c 0 -i 51 -a 0 -x {0.0 2.0 51 ------- null}
h -t 0.355 -s 0 -d 1 -p cbr -e 210 -c 0 -i 51 -a 0 -x {0.0 2.0 -1 ------- null}
r -t 0.3550084 -s 0 -d 1 -p cbr -e 210 -c 0 -i 49 -a 0 -x {0.0 2.0 49 ------- null}
+ -t 0.3550084 -s 1 -d 2 -p cbr -e 210 -c 0 -i 49 -a 0 -x {0.0 2.0 49 ------- null}
- -t 0.3550084 -s 1 -d 2 -p cbr -e 210 -c 0 -i 49 -a 0 -x {0.0 2.0 49 ------- null}
h -t 0.3550084 -s 1 -d 2 -p cbr -e 210 -c 0 -i 49 -a 0 -x {0.0 2.0 -1 ------- null}
+ -t 0.36 -s 0 -d 1 -p cbr -e 210 -c 0 -i 52 -a 0 -x {0.0 2.0 52 ------- null}
- -t 0.36 -s 0 -d 1 -p cbr -e 210 -c 0 -i 52 -a 0 -x {0.0 2.0 52 ------- null}
h -t 0.36 -s 0 -d 1 -p cbr -e 210 -c 0 -i 52 -a 0 -x {0.0 2.0 -1 ------- null}
r -t 0.3600084 -s 0 -d 1 -p cbr -e 210 -c 0 -i 50 -a 0 -x {0.0 2.0 50 ------- null}
+ -t 0.3600084 -s 1 -d 2 -p cbr -e 210 -c 0 -i 50 -a 0 -x {0.0 2.0 50 ------- null}
- -t 0.3600084 -s 1 -d 2 -p cbr -e 210 -c 0 -i 50 -a 0 -x {0.0 2.0 50 ------- null}
h -t 0.3600084 -s 1 -d 2 -p cbr -e 210 -c 0 -i 50 -a 0 -x {0.0 2.0 -1 ------- null}