h 0.1 0 6 tcp 40 ------- 0 0.0 5.0 0 0
h 0.2 2 6 tcp 40 ------- 0 2.0 3.0 0 1
+ 0.2 0 6 tcp 40 ------- 0 0.0 5.0 0 0
- 0.2 0 6 tcp 40 ------- 0 0.0 5.0 0 0
+ 0.3 2 6 tcp 40 ------- 0 2.0 3.0 0 1
- 0.3 2 6 tcp 40 ------- 0 2.0 3.0 0 1
r 0.300009 6 4 tcp 40 ------- 0 0.0 5.0 0 0
+ 0.300009 4 5 tcp 40 ------- 0 0.0 5.0 0 0
- 0.300009 4 5 tcp 40 ------- 0 0.0 5.0 0 0
r 0.301329 4 5 tcp 40 ------- 0 0.0 5.0 0 0
+ 0.301329 5 4 ack 40 ------- 0 5.0 0.0 0 2
- 0.301329 5 4 ack 40 ------- 0 5.0 0.0 0 2
r 0.302649 5 4 ack 40 ------- 0 5.0 0.0 0 2
h 0.302649 4 6 ack 40 ------- 0 5.0 0.0 0 2
r 0.400009 6 3 tcp 40 ------- 0 2.0 3.0 0 1
h 0.400009 3 6 ack 40 ------- 0 3.0 2.0 0 3
+ 0.402649 4 6 ack 40 ------- 0 5.0 0.0 0 2
- 0.402649 4 6 ack 40 ------- 0 5.0 0.0 0 2
+ 0.500009 3 6 ack 40 ------- 0 3.0 2.0 0 3
- 0.500009 3 6 ack 40 ------- 0 3.0 2.0 0 3
r 0.502658 6 0 ack 40 ------- 0 5.0 0.0 0 2
h 0.502658 0 6 tcp 1040 ------- 0 0.0 5.0 1 4
h 0.502658 0 6 tcp 1040 ------- 0 0.0 5.0 2 5
r 0.600018 6 2 ack 40 ------- 0 3.0 2.0 0 3
h 0.600018 2 6 tcp 1040 ------- 0 2.0 3.0 1 6
h 0.600018 2 6 tcp 1040 ------- 0 2.0 3.0 2 7
+ 0.602658 0 6 tcp 1040 ------- 0 0.0 5.0 1 4
- 0.602658 0 6 tcp 1040 ------- 0 0.0 5.0 1 4
+ 0.602658 0 6 tcp 1040 ------- 0 0.0 5.0 2 5
- 0.602744 0 6 tcp 1040 ------- 0 0.0 5.0 2 5
+ 0.700018 2 6 tcp 1040 ------- 0 2.0 3.0 1 6
- 0.700018 2 6 tcp 1040 ------- 0 2.0 3.0 1 6
+ 0.700018 2 6 tcp 1040 ------- 0 2.0 3.0 2 7
- 0.700104 2 6 tcp 1040 ------- 0 2.0 3.0 2 7
r 0.702747 6 4 tcp 1040 ------- 0 0.0 5.0 1 4
+ 0.702747 4 5 tcp 1040 ------- 0 0.0 5.0 1 4
- 0.702747 4 5 tcp 1040 ------- 0 0.0 5.0 1 4
r 0.702832 6 4 tcp 1040 ------- 0 0.0 5.0 2 5
+ 0.702832 4 5 tcp 1040 ------- 0 0.0 5.0 2 5
- 0.711067 4 5 tcp 1040 ------- 0 0.0 5.0 2 5
r 0.712067 4 5 tcp 1040 ------- 0 0.0 5.0 1 4
+ 0.712067 5 4 ack 40 ------- 0 5.0 0.0 1 8
- 0.712067 5 4 ack 40 ------- 0 5.0 0.0 1 8
r 0.713387 5 4 ack 40 ------- 0 5.0 0.0 1 8
h 0.713387 4 6 ack 40 ------- 0 5.0 0.0 1 8
r 0.720387 4 5 tcp 1040 ------- 0 0.0 5.0 2 5
+ 0.720387 5 4 ack 40 ------- 0 5.0 0.0 2 9
- 0.720387 5 4 ack 40 ------- 0 5.0 0.0 2 9
r 0.721707 5 4 ack 40 ------- 0 5.0 0.0 2 9
h 0.721707 4 6 ack 40 ------- 0 5.0 0.0 2 9
r 0.800107 6 3 tcp 1040 ------- 0 2.0 3.0 1 6
h 0.800107 3 6 ack 40 ------- 0 3.0 2.0 1 10
r 0.800192 6 3 tcp 1040 ------- 0 2.0 3.0 2 7
h 0.800192 3 6 ack 40 ------- 0 3.0 2.0 2 11
+ 0.813387 4 6 ack 40 ------- 0 5.0 0.0 1 8
- 0.813387 4 6 ack 40 ------- 0 5.0 0.0 1 8
+ 0.821707 4 6 ack 40 ------- 0 5.0 0.0 2 9
- 0.821707 4 6 ack 40 ------- 0 5.0 0.0 2 9
+ 0.900107 3 6 ack 40 ------- 0 3.0 2.0 1 10
- 0.900107 3 6 ack 40 ------- 0 3.0 2.0 1 10
+ 0.900192 3 6 ack 40 ------- 0 3.0 2.0 2 11
- 0.900192 3 6 ack 40 ------- 0 3.0 2.0 2 11
r 0.913396 6 0 ack 40 ------- 0 5.0 0.0 1 8
h 0.913396 0 6 tcp 1040 ------- 0 0.0 5.0 3 12
h 0.913396 0 6 tcp 1040 ------- 0 0.0 5.0 4 13
r 0.921716 6 0 ack 40 ------- 0 5.0 0.0 2 9
h 0.921716 0 6 tcp 1040 ------- 0 0.0 5.0 5 14
h 0.921716 0 6 tcp 1040 ------- 0 0.0 5.0 6 15
r 1.000116 6 2 ack 40 ------- 0 3.0 2.0 1 10
h 1.000116 2 6 tcp 1040 ------- 0 2.0 3.0 3 16
h 1.000116 2 6 tcp 1040 ------- 0 2.0 3.0 4 17
r 1.000201 6 2 ack 40 ------- 0 3.0 2.0 2 11
h 1.000201 2 6 tcp 1040 ------- 0 2.0 3.0 5 18
h 1.000201 2 6 tcp 1040 ------- 0 2.0 3.0 6 19
+ 1.013396 0 6 tcp 1040 ------- 0 0.0 5.0 3 12
- 1.013396 0 6 tcp 1040 ------- 0 0.0 5.0 3 12
+ 1.013396 0 6 tcp 1040 ------- 0 0.0 5.0 4 13
- 1.013481 0 6 tcp 1040 ------- 0 0.0 5.0 4 13
+ 1.021716 0 6 tcp 1040 ------- 0 0.0 5.0 5 14
- 1.021716 0 6 tcp 1040 ------- 0 0.0 5.0 5 14
+ 1.021716 0 6 tcp 1040 ------- 0 0.0 5.0 6 15
- 1.021801 0 6 tcp 1040 ------- 0 0.0 5.0 6 15
+ 1.100116 2 6 tcp 1040 ------- 0 2.0 3.0 3 16
- 1.100116 2 6 tcp 1040 ------- 0 2.0 3.0 3 16
+ 1.100116 2 6 tcp 1040 ------- 0 2.0 3.0 4 17
- 1.100201 2 6 tcp 1040 ------- 0 2.0 3.0 4 17
+ 1.100201 2 6 tcp 1040 ------- 0 2.0 3.0 5 18
+ 1.100201 2 6 tcp 1040 ------- 0 2.0 3.0 6 19
- 1.100286 2 6 tcp 1040 ------- 0 2.0 3.0 5 18
- 1.100372 2 6 tcp 1040 ------- 0 2.0 3.0 6 19
r 1.113484 6 4 tcp 1040 ------- 0 0.0 5.0 3 12
+ 1.113484 4 5 tcp 1040 ------- 0 0.0 5.0 3 12
- 1.113484 4 5 tcp 1040 ------- 0 0.0 5.0 3 12
r 1.113569 6 4 tcp 1040 ------- 0 0.0 5.0 4 13
+ 1.113569 4 5 tcp 1040 ------- 0 0.0 5.0 4 13
r 1.121804 6 4 tcp 1040 ------- 0 0.0 5.0 5 14
+ 1.121804 4 5 tcp 1040 ------- 0 0.0 5.0 5 14
- 1.121804 4 5 tcp 1040 ------- 0 0.0 5.0 4 13
r 1.121889 6 4 tcp 1040 ------- 0 0.0 5.0 6 15
+ 1.121889 4 5 tcp 1040 ------- 0 0.0 5.0 6 15
r 1.122804 4 5 tcp 1040 ------- 0 0.0 5.0 3 12
+ 1.122804 5 4 ack 40 ------- 0 5.0 0.0 3 20
- 1.122804 5 4 ack 40 ------- 0 5.0 0.0 3 20
r 1.124124 5 4 ack 40 ------- 0 5.0 0.0 3 20
h 1.124124 4 6 ack 40 ------- 0 5.0 0.0 3 20
- 1.130124 4 5 tcp 1040 ------- 0 0.0 5.0 5 14
r 1.131124 4 5 tcp 1040 ------- 0 0.0 5.0 4 13
+ 1.131124 5 4 ack 40 ------- 0 5.0 0.0 4 21
- 1.131124 5 4 ack 40 ------- 0 5.0 0.0 4 21
r 1.132444 5 4 ack 40 ------- 0 5.0 0.0 4 21
h 1.132444 4 6 ack 40 ------- 0 5.0 0.0 4 21
- 1.138444 4 5 tcp 1040 ------- 0 0.0 5.0 6 15
r 1.139444 4 5 tcp 1040 ------- 0 0.0 5.0 5 14
+ 1.139444 5 4 ack 40 ------- 0 5.0 0.0 5 22
- 1.139444 5 4 ack 40 ------- 0 5.0 0.0 5 22
r 1.140764 5 4 ack 40 ------- 0 5.0 0.0 5 22
h 1.140764 4 6 ack 40 ------- 0 5.0 0.0 5 22
r 1.147764 4 5 tcp 1040 ------- 0 0.0 5.0 6 15
+ 1.147764 5 4 ack 40 ------- 0 5.0 0.0 6 23
- 1.147764 5 4 ack 40 ------- 0 5.0 0.0 6 23
r 1.149084 5 4 ack 40 ------- 0 5.0 0.0 6 23
h 1.149084 4 6 ack 40 ------- 0 5.0 0.0 6 23
r 1.200204 6 3 tcp 1040 ------- 0 2.0 3.0 3 16
h 1.200204 3 6 ack 40 ------- 0 3.0 2.0 3 24
r 1.200289 6 3 tcp 1040 ------- 0 2.0 3.0 4 17
h 1.200289 3 6 ack 40 ------- 0 3.0 2.0 4 25
r 1.200375 6 3 tcp 1040 ------- 0 2.0 3.0 5 18
h 1.200375 3 6 ack 40 ------- 0 3.0 2.0 5 26
r 1.20046 6 3 tcp 1040 ------- 0 2.0 3.0 6 19
h 1.20046 3 6 ack 40 ------- 0 3.0 2.0 6 27
+ 1.224124 4 6 ack 40 ------- 0 5.0 0.0 3 20
- 1.224124 4 6 ack 40 ------- 0 5.0 0.0 3 20
+ 1.232444 4 6 ack 40 ------- 0 5.0 0.0 4 21
- 1.232444 4 6 ack 40 ------- 0 5.0 0.0 4 21
+ 1.240764 4 6 ack 40 ------- 0 5.0 0.0 5 22
- 1.240764 4 6 ack 40 ------- 0 5.0 0.0 5 22
+ 1.249084 4 6 ack 40 ------- 0 5.0 0.0 6 23
- 1.249084 4 6 ack 40 ------- 0 5.0 0.0 6 23
+ 1.300204 3 6 ack 40 ------- 0 3.0 2.0 3 24
- 1.300204 3 6 ack 40 ------- 0 3.0 2.0 3 24
+ 1.300289 3 6 ack 40 ------- 0 3.0 2.0 4 25
- 1.300289 3 6 ack 40 ------- 0 3.0 2.0 4 25
+ 1.300375 3 6 ack 40 ------- 0 3.0 2.0 5 26
- 1.300375 3 6 ack 40 ------- 0 3.0 2.0 5 26
+ 1.30046 3 6 ack 40 ------- 0 3.0 2.0 6 27
- 1.30046 3 6 ack 40 ------- 0 3.0 2.0 6 27
r 1.324133 6 0 ack 40 ------- 0 5.0 0.0 3 20
h 1.324133 0 6 tcp 1040 ------- 0 0.0 5.0 7 28
h 1.324133 0 6 tcp 1040 ------- 0 0.0 5.0 8 29
r 1.332453 6 0 ack 40 ------- 0 5.0 0.0 4 21
h 1.332453 0 6 tcp 1040 ------- 0 0.0 5.0 9 30
h 1.332453 0 6 tcp 1040 ------- 0 0.0 5.0 10 31
r 1.340773 6 0 ack 40 ------- 0 5.0 0.0 5 22
h 1.340773 0 6 tcp 1040 ------- 0 0.0 5.0 11 32
h 1.340773 0 6 tcp 1040 ------- 0 0.0 5.0 12 33
r 1.349093 6 0 ack 40 ------- 0 5.0 0.0 6 23
h 1.349093 0 6 tcp 1040 ------- 0 0.0 5.0 13 34
h 1.349093 0 6 tcp 1040 ------- 0 0.0 5.0 14 35
r 1.400213 6 2 ack 40 ------- 0 3.0 2.0 3 24
h 1.400213 2 6 tcp 1040 ------- 0 2.0 3.0 7 36
h 1.400213 2 6 tcp 1040 ------- 0 2.0 3.0 8 37
r 1.400298 6 2 ack 40 ------- 0 3.0 2.0 4 25
h 1.400298 2 6 tcp 1040 ------- 0 2.0 3.0 9 38
h 1.400298 2 6 tcp 1040 ------- 0 2.0 3.0 10 39
r 1.400384 6 2 ack 40 ------- 0 3.0 2.0 5 26
h 1.400384 2 6 tcp 1040 ------- 0 2.0 3.0 11 40
h 1.400384 2 6 tcp 1040 ------- 0 2.0 3.0 12 41
r 1.400469 6 2 ack 40 ------- 0 3.0 2.0 6 27
h 1.400469 2 6 tcp 1040 ------- 0 2.0 3.0 13 42
h 1.400469 2 6 tcp 1040 ------- 0 2.0 3.0 14 43
+ 1.424133 0 6 tcp 1040 ------- 0 0.0 5.0 7 28
- 1.424133 0 6 tcp 1040 ------- 0 0.0 5.0 7 28
+ 1.424133 0 6 tcp 1040 ------- 0 0.0 5.0 8 29
- 1.424218 0 6 tcp 1040 ------- 0 0.0 5.0 8 29
+ 1.432453 0 6 tcp 1040 ------- 0 0.0 5.0 9 30
- 1.432453 0 6 tcp 1040 ------- 0 0.0 5.0 9 30
+ 1.432453 0 6 tcp 1040 ------- 0 0.0 5.0 10 31
- 1.432538 0 6 tcp 1040 ------- 0 0.0 5.0 10 31
+ 1.440773 0 6 tcp 1040 ------- 0 0.0 5.0 11 32
- 1.440773 0 6 tcp 1040 ------- 0 0.0 5.0 11 32
+ 1.440773 0 6 tcp 1040 ------- 0 0.0 5.0 12 33
- 1.440858 0 6 tcp 1040 ------- 0 0.0 5.0 12 33
+ 1.449093 0 6 tcp 1040 ------- 0 0.0 5.0 13 34
- 1.449093 0 6 tcp 1040 ------- 0 0.0 5.0 13 34
+ 1.449093 0 6 tcp 1040 ------- 0 0.0 5.0 14 35
- 1.449178 0 6 tcp 1040 ------- 0 0.0 5.0 14 35
+ 1.500213 2 6 tcp 1040 ------- 0 2.0 3.0 7 36
- 1.500213 2 6 tcp 1040 ------- 0 2.0 3.0 7 36
+ 1.500213 2 6 tcp 1040 ------- 0 2.0 3.0 8 37
+ 1.500298 2 6 tcp 1040 ------- 0 2.0 3.0 9 38
+ 1.500298 2 6 tcp 1040 ------- 0 2.0 3.0 10 39
- 1.500298 2 6 tcp 1040 ------- 0 2.0 3.0 8 37
+ 1.500384 2 6 tcp 1040 ------- 0 2.0 3.0 11 40
+ 1.500384 2 6 tcp 1040 ------- 0 2.0 3.0 12 41
- 1.500384 2 6 tcp 1040 ------- 0 2.0 3.0 9 38
+ 1.500469 2 6 tcp 1040 ------- 0 2.0 3.0 13 42
+ 1.500469 2 6 tcp 1040 ------- 0 2.0 3.0 14 43
- 1.500469 2 6 tcp 1040 ------- 0 2.0 3.0 10 39
- 1.500554 2 6 tcp 1040 ------- 0 2.0 3.0 11 40
- 1.50064 2 6 tcp 1040 ------- 0 2.0 3.0 12 41
- 1.500725 2 6 tcp 1040 ------- 0 2.0 3.0 13 42
- 1.50081 2 6 tcp 1040 ------- 0 2.0 3.0 14 43
r 1.524221 6 4 tcp 1040 ------- 0 0.0 5.0 7 28
+ 1.524221 4 5 tcp 1040 ------- 0 0.0 5.0 7 28
- 1.524221 4 5 tcp 1040 ------- 0 0.0 5.0 7 28
r 1.524307 6 4 tcp 1040 ------- 0 0.0 5.0 8 29
+ 1.524307 4 5 tcp 1040 ------- 0 0.0 5.0 8 29
r 1.532541 6 4 tcp 1040 ------- 0 0.0 5.0 9 30
+ 1.532541 4 5 tcp 1040 ------- 0 0.0 5.0 9 30
- 1.532541 4 5 tcp 1040 ------- 0 0.0 5.0 8 29
r 1.532627 6 4 tcp 1040 ------- 0 0.0 5.0 10 31
+ 1.532627 4 5 tcp 1040 ------- 0 0.0 5.0 10 31
r 1.533541 4 5 tcp 1040 ------- 0 0.0 5.0 7 28
+ 1.533541 5 4 ack 40 ------- 0 5.0 0.0 7 44
- 1.533541 5 4 ack 40 ------- 0 5.0 0.0 7 44
r 1.534861 5 4 ack 40 ------- 0 5.0 0.0 7 44
h 1.534861 4 6 ack 40 ------- 0 5.0 0.0 7 44
r 1.540861 6 4 tcp 1040 ------- 0 0.0 5.0 11 32
+ 1.540861 4 5 tcp 1040 ------- 0 0.0 5.0 11 32
- 1.540861 4 5 tcp 1040 ------- 0 0.0 5.0 9 30
r 1.540947 6 4 tcp 1040 ------- 0 0.0 5.0 12 33
+ 1.540947 4 5 tcp 1040 ------- 0 0.0 5.0 12 33
r 1.541861 4 5 tcp 1040 ------- 0 0.0 5.0 8 29
+ 1.541861 5 4 ack 40 ------- 0 5.0 0.0 8 45
- 1.541861 5 4 ack 40 ------- 0 5.0 0.0 8 45
r 1.543181 5 4 ack 40 ------- 0 5.0 0.0 8 45
h 1.543181 4 6 ack 40 ------- 0 5.0 0.0 8 45
r 1.549181 6 4 tcp 1040 ------- 0 0.0 5.0 13 34
+ 1.549181 4 5 tcp 1040 ------- 0 0.0 5.0 13 34
- 1.549181 4 5 tcp 1040 ------- 0 0.0 5.0 10 31
r 1.549267 6 4 tcp 1040 ------- 0 0.0 5.0 14 35
+ 1.549267 4 5 tcp 1040 ------- 0 0.0 5.0 14 35
r 1.550181 4 5 tcp 1040 ------- 0 0.0 5.0 9 30
+ 1.550181 5 4 ack 40 ------- 0 5.0 0.0 9 46
- 1.550181 5 4 ack 40 ------- 0 5.0 0.0 9 46
r 1.551501 5 4 ack 40 ------- 0 5.0 0.0 9 46
h 1.551501 4 6 ack 40 ------- 0 5.0 0.0 9 46
- 1.557501 4 5 tcp 1040 ------- 0 0.0 5.0 11 32
r 1.558501 4 5 tcp 1040 ------- 0 0.0 5.0 10 31
+ 1.558501 5 4 ack 40 ------- 0 5.0 0.0 10 47
- 1.558501 5 4 ack 40 ------- 0 5.0 0.0 10 47
r 1.559821 5 4 ack 40 ------- 0 5.0 0.0 10 47
h 1.559821 4 6 ack 40 ------- 0 5.0 0.0 10 47
- 1.565821 4 5 tcp 1040 ------- 0 0.0 5.0 12 33
r 1.566821 4 5 tcp 1040 ------- 0 0.0 5.0 11 32
+ 1.566821 5 4 ack 40 ------- 0 5.0 0.0 11 48
- 1.566821 5 4 ack 40 ------- 0 5.0 0.0 11 48
r 1.568141 5 4 ack 40 ------- 0 5.0 0.0 11 48
h 1.568141 4 6 ack 40 ------- 0 5.0 0.0 11 48
- 1.574141 4 5 tcp 1040 ------- 0 0.0 5.0 13 34
r 1.575141 4 5 tcp 1040 ------- 0 0.0 5.0 12 33
+ 1.575141 5 4 ack 40 ------- 0 5.0 0.0 12 49
- 1.575141 5 4 ack 40 ------- 0 5.0 0.0 12 49
r 1.576461 5 4 ack 40 ------- 0 5.0 0.0 12 49
h 1.576461 4 6 ack 40 ------- 0 5.0 0.0 12 49
- 1.582461 4 5 tcp 1040 ------- 0 0.0 5.0 14 35
r 1.583461 4 5 tcp 1040 ------- 0 0.0 5.0 13 34
+ 1.583461 5 4 ack 40 ------- 0 5.0 0.0 13 50
- 1.583461 5 4 ack 40 ------- 0 5.0 0.0 13 50
r 1.584781 5 4 ack 40 ------- 0 5.0 0.0 13 50
h 1.584781 4 6 ack 40 ------- 0 5.0 0.0 13 50
r 1.591781 4 5 tcp 1040 ------- 0 0.0 5.0 14 35
+ 1.591781 5 4 ack 40 ------- 0 5.0 0.0 14 51
- 1.591781 5 4 ack 40 ------- 0 5.0 0.0 14 51
r 1.593101 5 4 ack 40 ------- 0 5.0 0.0 14 51
h 1.593101 4 6 ack 40 ------- 0 5.0 0.0 14 51
r 1.600301 6 3 tcp 1040 ------- 0 2.0 3.0 7 36
h 1.600301 3 6 ack 40 ------- 0 3.0 2.0 7 52
r 1.600387 6 3 tcp 1040 ------- 0 2.0 3.0 8 37
h 1.600387 3 6 ack 40 ------- 0 3.0 2.0 8 53
r 1.600472 6 3 tcp 1040 ------- 0 2.0 3.0 9 38
h 1.600472 3 6 ack 40 ------- 0 3.0 2.0 9 54
r 1.600557 6 3 tcp 1040 ------- 0 2.0 3.0 10 39
h 1.600557 3 6 ack 40 ------- 0 3.0 2.0 10 55
r 1.600643 6 3 tcp 1040 ------- 0 2.0 3.0 11 40
h 1.600643 3 6 ack 40 ------- 0 3.0 2.0 11 56
r 1.600728 6 3 tcp 1040 ------- 0 2.0 3.0 12 41
h 1.600728 3 6 ack 40 ------- 0 3.0 2.0 12 57
r 1.600813 6 3 tcp 1040 ------- 0 2.0 3.0 13 42
h 1.600813 3 6 ack 40 ------- 0 3.0 2.0 13 58
r 1.600898 6 3 tcp 1040 ------- 0 2.0 3.0 14 43
h 1.600898 3 6 ack 40 ------- 0 3.0 2.0 14 59
+ 1.634861 4 6 ack 40 ------- 0 5.0 0.0 7 44
- 1.634861 4 6 ack 40 ------- 0 5.0 0.0 7 44
+ 1.643181 4 6 ack 40 ------- 0 5.0 0.0 8 45
- 1.643181 4 6 ack 40 ------- 0 5.0 0.0 8 45
+ 1.651501 4 6 ack 40 ------- 0 5.0 0.0 9 46
- 1.651501 4 6 ack 40 ------- 0 5.0 0.0 9 46
+ 1.659821 4 6 ack 40 ------- 0 5.0 0.0 10 47
- 1.659821 4 6 ack 40 ------- 0 5.0 0.0 10 47
+ 1.668141 4 6 ack 40 ------- 0 5.0 0.0 11 48
- 1.668141 4 6 ack 40 ------- 0 5.0 0.0 11 48
+ 1.676461 4 6 ack 40 ------- 0 5.0 0.0 12 49
- 1.676461 4 6 ack 40 ------- 0 5.0 0.0 12 49
+ 1.684781 4 6 ack 40 ------- 0 5.0 0.0 13 50
- 1.684781 4 6 ack 40 ------- 0 5.0 0.0 13 50
+ 1.693101 4 6 ack 40 ------- 0 5.0 0.0 14 51
- 1.693101 4 6 ack 40 ------- 0 5.0 0.0 14 51
+ 1.700301 3 6 ack 40 ------- 0 3.0 2.0 7 52
- 1.700301 3 6 ack 40 ------- 0 3.0 2.0 7 52
+ 1.700387 3 6 ack 40 ------- 0 3.0 2.0 8 53
- 1.700387 3 6 ack 40 ------- 0 3.0 2.0 8 53
+ 1.700472 3 6 ack 40 ------- 0 3.0 2.0 9 54
- 1.700472 3 6 ack 40 ------- 0 3.0 2.0 9 54
+ 1.700557 3 6 ack 40 ------- 0 3.0 2.0 10 55
- 1.700557 3 6 ack 40 ------- 0 3.0 2.0 10 55
+ 1.700643 3 6 ack 40 ------- 0 3.0 2.0 11 56
- 1.700643 3 6 ack 40 ------- 0 3.0 2.0 11 56
+ 1.700728 3 6 ack 40 ------- 0 3.0 2.0 12 57
- 1.700728 3 6 ack 40 ------- 0 3.0 2.0 12 57
+ 1.700813 3 6 ack 40 ------- 0 3.0 2.0 13 58
- 1.700813 3 6 ack 40 ------- 0 3.0 2.0 13 58
+ 1.700898 3 6 ack 40 ------- 0 3.0 2.0 14 59
- 1.700898 3 6 ack 40 ------- 0 3.0 2.0 14 59
r 1.734871 6 0 ack 40 ------- 0 5.0 0.0 7 44
h 1.734871 0 6 tcp 1040 ------- 0 0.0 5.0 15 60
h 1.734871 0 6 tcp 1040 ------- 0 0.0 5.0 16 61
r 1.743191 6 0 ack 40 ------- 0 5.0 0.0 8 45
h 1.743191 0 6 tcp 1040 ------- 0 0.0 5.0 17 62
h 1.743191 0 6 tcp 1040 ------- 0 0.0 5.0 18 63
r 1.751511 6 0 ack 40 ------- 0 5.0 0.0 9 46
h 1.751511 0 6 tcp 1040 ------- 0 0.0 5.0 19 64
h 1.751511 0 6 tcp 1040 ------- 0 0.0 5.0 20 65
r 1.759831 6 0 ack 40 ------- 0 5.0 0.0 10 47
h 1.759831 0 6 tcp 1040 ------- 0 0.0 5.0 21 66
h 1.759831 0 6 tcp 1040 ------- 0 0.0 5.0 22 67
r 1.768151 6 0 ack 40 ------- 0 5.0 0.0 11 48
h 1.768151 0 6 tcp 1040 ------- 0 0.0 5.0 23 68
h 1.768151 0 6 tcp 1040 ------- 0 0.0 5.0 24 69
r 1.776471 6 0 ack 40 ------- 0 5.0 0.0 12 49
h 1.776471 0 6 tcp 1040 ------- 0 0.0 5.0 25 70
h 1.776471 0 6 tcp 1040 ------- 0 0.0 5.0 26 71
r 1.784791 6 0 ack 40 ------- 0 5.0 0.0 13 50
h 1.784791 0 6 tcp 1040 ------- 0 0.0 5.0 27 72
h 1.784791 0 6 tcp 1040 ------- 0 0.0 5.0 28 73
r 1.793111 6 0 ack 40 ------- 0 5.0 0.0 14 51
h 1.793111 0 6 tcp 1040 ------- 0 0.0 5.0 29 74
h 1.793111 0 6 tcp 1040 ------- 0 0.0 5.0 30 75
r 1.800311 6 2 ack 40 ------- 0 3.0 2.0 7 52
h 1.800311 2 6 tcp 1040 ------- 0 2.0 3.0 15 76
h 1.800311 2 6 tcp 1040 ------- 0 2.0 3.0 16 77
r 1.800396 6 2 ack 40 ------- 0 3.0 2.0 8 53
h 1.800396 2 6 tcp 1040 ------- 0 2.0 3.0 17 78
h 1.800396 2 6 tcp 1040 ------- 0 2.0 3.0 18 79
r 1.800481 6 2 ack 40 ------- 0 3.0 2.0 9 54
h 1.800481 2 6 tcp 1040 ------- 0 2.0 3.0 19 80
h 1.800481 2 6 tcp 1040 ------- 0 2.0 3.0 20 81
r 1.800566 6 2 ack 40 ------- 0 3.0 2.0 10 55
h 1.800566 2 6 tcp 1040 ------- 0 2.0 3.0 21 82
h 1.800566 2 6 tcp 1040 ------- 0 2.0 3.0 22 83
r 1.800652 6 2 ack 40 ------- 0 3.0 2.0 11 56
h 1.800652 2 6 tcp 1040 ------- 0 2.0 3.0 23 84
h 1.800652 2 6 tcp 1040 ------- 0 2.0 3.0 24 85
r 1.800737 6 2 ack 40 ------- 0 3.0 2.0 12 57
h 1.800737 2 6 tcp 1040 ------- 0 2.0 3.0 25 86
h 1.800737 2 6 tcp 1040 ------- 0 2.0 3.0 26 87
r 1.800822 6 2 ack 40 ------- 0 3.0 2.0 13 58
h 1.800822 2 6 tcp 1040 ------- 0 2.0 3.0 27 88
h 1.800822 2 6 tcp 1040 ------- 0 2.0 3.0 28 89
r 1.800908 6 2 ack 40 ------- 0 3.0 2.0 14 59
h 1.800908 2 6 tcp 1040 ------- 0 2.0 3.0 29 90
h 1.800908 2 6 tcp 1040 ------- 0 2.0 3.0 30 91
+ 1.834871 0 6 tcp 1040 ------- 0 0.0 5.0 15 60
- 1.834871 0 6 tcp 1040 ------- 0 0.0 5.0 15 60
+ 1.834871 0 6 tcp 1040 ------- 0 0.0 5.0 16 61
- 1.834956 0 6 tcp 1040 ------- 0 0.0 5.0 16 61
+ 1.843191 0 6 tcp 1040 ------- 0 0.0 5.0 17 62
- 1.843191 0 6 tcp 1040 ------- 0 0.0 5.0 17 62
+ 1.843191 0 6 tcp 1040 ------- 0 0.0 5.0 18 63
- 1.843276 0 6 tcp 1040 ------- 0 0.0 5.0 18 63
+ 1.851511 0 6 tcp 1040 ------- 0 0.0 5.0 19 64
- 1.851511 0 6 tcp 1040 ------- 0 0.0 5.0 19 64
+ 1.851511 0 6 tcp 1040 ------- 0 0.0 5.0 20 65
- 1.851596 0 6 tcp 1040 ------- 0 0.0 5.0 20 65
+ 1.859831 0 6 tcp 1040 ------- 0 0.0 5.0 21 66
- 1.859831 0 6 tcp 1040 ------- 0 0.0 5.0 21 66
+ 1.859831 0 6 tcp 1040 ------- 0 0.0 5.0 22 67
- 1.859916 0 6 tcp 1040 ------- 0 0.0 5.0 22 67
+ 1.868151 0 6 tcp 1040 ------- 0 0.0 5.0 23 68
- 1.868151 0 6 tcp 1040 ------- 0 0.0 5.0 23 68
+ 1.868151 0 6 tcp 1040 ------- 0 0.0 5.0 24 69
- 1.868236 0 6 tcp 1040 ------- 0 0.0 5.0 24 69
+ 1.876471 0 6 tcp 1040 ------- 0 0.0 5.0 25 70
- 1.876471 0 6 tcp 1040 ------- 0 0.0 5.0 25 70
+ 1.876471 0 6 tcp 1040 ------- 0 0.0 5.0 26 71
- 1.876556 0 6 tcp 1040 ------- 0 0.0 5.0 26 71
+ 1.884791 0 6 tcp 1040 ------- 0 0.0 5.0 27 72
- 1.884791 0 6 tcp 1040 ------- 0 0.0 5.0 27 72
+ 1.884791 0 6 tcp 1040 ------- 0 0.0 5.0 28 73
- 1.884876 0 6 tcp 1040 ------- 0 0.0 5.0 28 73
+ 1.893111 0 6 tcp 1040 ------- 0 0.0 5.0 29 74
- 1.893111 0 6 tcp 1040 ------- 0 0.0 5.0 29 74
+ 1.893111 0 6 tcp 1040 ------- 0 0.0 5.0 30 75
- 1.893196 0 6 tcp 1040 ------- 0 0.0 5.0 30 75
+ 1.900311 2 6 tcp 1040 ------- 0 2.0 3.0 15 76
- 1.900311 2 6 tcp 1040 ------- 0 2.0 3.0 15 76
+ 1.900311 2 6 tcp 1040 ------- 0 2.0 3.0 16 77
+ 1.900396 2 6 tcp 1040 ------- 0 2.0 3.0 17 78
+ 1.900396 2 6 tcp 1040 ------- 0 2.0 3.0 18 79
- 1.900396 2 6 tcp 1040 ------- 0 2.0 3.0 16 77
+ 1.900481 2 6 tcp 1040 ------- 0 2.0 3.0 19 80
+ 1.900481 2 6 tcp 1040 ------- 0 2.0 3.0 20 81
- 1.900481 2 6 tcp 1040 ------- 0 2.0 3.0 17 78
+ 1.900566 2 6 tcp 1040 ------- 0 2.0 3.0 21 82
+ 1.900566 2 6 tcp 1040 ------- 0 2.0 3.0 22 83
- 1.900566 2 6 tcp 1040 ------- 0 2.0 3.0 18 79
+ 1.900652 2 6 tcp 1040 ------- 0 2.0 3.0 23 84
+ 1.900652 2 6 tcp 1040 ------- 0 2.0 3.0 24 85
- 1.900652 2 6 tcp 1040 ------- 0 2.0 3.0 19 80
+ 1.900737 2 6 tcp 1040 ------- 0 2.0 3.0 25 86
+ 1.900737 2 6 tcp 1040 ------- 0 2.0 3.0 26 87
- 1.900737 2 6 tcp 1040 ------- 0 2.0 3.0 20 81
+ 1.900822 2 6 tcp 1040 ------- 0 2.0 3.0 27 88
+ 1.900822 2 6 tcp 1040 ------- 0 2.0 3.0 28 89
- 1.900822 2 6 tcp 1040 ------- 0 2.0 3.0 21 82
+ 1.900908 2 6 tcp 1040 ------- 0 2.0 3.0 29 90
+ 1.900908 2 6 tcp 1040 ------- 0 2.0 3.0 30 91
- 1.900908 2 6 tcp 1040 ------- 0 2.0 3.0 22 83
- 1.900993 2 6 tcp 1040 ------- 0 2.0 3.0 23 84
- 1.901078 2 6 tcp 1040 ------- 0 2.0 3.0 24 85
- 1.901163 2 6 tcp 1040 ------- 0 2.0 3.0 25 86
- 1.901249 2 6 tcp 1040 ------- 0 2.0 3.0 26 87
- 1.901334 2 6 tcp 1040 ------- 0 2.0 3.0 27 88
- 1.901419 2 6 tcp 1040 ------- 0 2.0 3.0 28 89
- 1.901504 2 6 tcp 1040 ------- 0 2.0 3.0 29 90
- 1.90159 2 6 tcp 1040 ------- 0 2.0 3.0 30 91
r 1.934959 6 4 tcp 1040 ------- 0 0.0 5.0 15 60
+ 1.934959 4 5 tcp 1040 ------- 0 0.0 5.0 15 60
- 1.934959 4 5 tcp 1040 ------- 0 0.0 5.0 15 60
r 1.935044 6 4 tcp 1040 ------- 0 0.0 5.0 16 61
+ 1.935044 4 5 tcp 1040 ------- 0 0.0 5.0 16 61
r 1.943279 6 4 tcp 1040 ------- 0 0.0 5.0 17 62
+ 1.943279 4 5 tcp 1040 ------- 0 0.0 5.0 17 62
- 1.943279 4 5 tcp 1040 ------- 0 0.0 5.0 16 61
r 1.943364 6 4 tcp 1040 ------- 0 0.0 5.0 18 63
+ 1.943364 4 5 tcp 1040 ------- 0 0.0 5.0 18 63
r 1.944279 4 5 tcp 1040 ------- 0 0.0 5.0 15 60
+ 1.944279 5 4 ack 40 ------- 0 5.0 0.0 15 92
- 1.944279 5 4 ack 40 ------- 0 5.0 0.0 15 92
r 1.945599 5 4 ack 40 ------- 0 5.0 0.0 15 92
h 1.945599 4 6 ack 40 ------- 0 5.0 0.0 15 92
r 1.951599 6 4 tcp 1040 ------- 0 0.0 5.0 19 64
+ 1.951599 4 5 tcp 1040 ------- 0 0.0 5.0 19 64
- 1.951599 4 5 tcp 1040 ------- 0 0.0 5.0 17 62
r 1.951684 6 4 tcp 1040 ------- 0 0.0 5.0 20 65
+ 1.951684 4 5 tcp 1040 ------- 0 0.0 5.0 20 65
r 1.952599 4 5 tcp 1040 ------- 0 0.0 5.0 16 61
+ 1.952599 5 4 ack 40 ------- 0 5.0 0.0 16 93
- 1.952599 5 4 ack 40 ------- 0 5.0 0.0 16 93
r 1.953919 5 4 ack 40 ------- 0 5.0 0.0 16 93
h 1.953919 4 6 ack 40 ------- 0 5.0 0.0 16 93
r 1.959919 6 4 tcp 1040 ------- 0 0.0 5.0 21 66
+ 1.959919 4 5 tcp 1040 ------- 0 0.0 5.0 21 66
- 1.959919 4 5 tcp 1040 ------- 0 0.0 5.0 18 63
r 1.960004 6 4 tcp 1040 ------- 0 0.0 5.0 22 67
+ 1.960004 4 5 tcp 1040 ------- 0 0.0 5.0 22 67
r 1.960919 4 5 tcp 1040 ------- 0 0.0 5.0 17 62
+ 1.960919 5 4 ack 40 ------- 0 5.0 0.0 17 94
- 1.960919 5 4 ack 40 ------- 0 5.0 0.0 17 94
r 1.962239 5 4 ack 40 ------- 0 5.0 0.0 17 94
h 1.962239 4 6 ack 40 ------- 0 5.0 0.0 17 94
r 1.968239 6 4 tcp 1040 ------- 0 0.0 5.0 23 68
+ 1.968239 4 5 tcp 1040 ------- 0 0.0 5.0 23 68
- 1.968239 4 5 tcp 1040 ------- 0 0.0 5.0 19 64
r 1.968324 6 4 tcp 1040 ------- 0 0.0 5.0 24 69
+ 1.968324 4 5 tcp 1040 ------- 0 0.0 5.0 24 69
r 1.969239 4 5 tcp 1040 ------- 0 0.0 5.0 18 63
+ 1.969239 5 4 ack 40 ------- 0 5.0 0.0 18 95
- 1.969239 5 4 ack 40 ------- 0 5.0 0.0 18 95
r 1.970559 5 4 ack 40 ------- 0 5.0 0.0 18 95
h 1.970559 4 6 ack 40 ------- 0 5.0 0.0 18 95
r 1.976559 6 4 tcp 1040 ------- 0 0.0 5.0 25 70
+ 1.976559 4 5 tcp 1040 ------- 0 0.0 5.0 25 70
- 1.976559 4 5 tcp 1040 ------- 0 0.0 5.0 20 65
r 1.976644 6 4 tcp 1040 ------- 0 0.0 5.0 26 71
+ 1.976644 4 5 tcp 1040 ------- 0 0.0 5.0 26 71
r 1.977559 4 5 tcp 1040 ------- 0 0.0 5.0 19 64
+ 1.977559 5 4 ack 40 ------- 0 5.0 0.0 19 96
- 1.977559 5 4 ack 40 ------- 0 5.0 0.0 19 96
r 1.978879 5 4 ack 40 ------- 0 5.0 0.0 19 96
h 1.978879 4 6 ack 40 ------- 0 5.0 0.0 19 96
r 1.984879 6 4 tcp 1040 ------- 0 0.0 5.0 27 72
+ 1.984879 4 5 tcp 1040 ------- 0 0.0 5.0 27 72
- 1.984879 4 5 tcp 1040 ------- 0 0.0 5.0 21 66
r 1.984964 6 4 tcp 1040 ------- 0 0.0 5.0 28 73
+ 1.984964 4 5 tcp 1040 ------- 0 0.0 5.0 28 73
r 1.985879 4 5 tcp 1040 ------- 0 0.0 5.0 20 65
+ 1.985879 5 4 ack 40 ------- 0 5.0 0.0 20 97
- 1.985879 5 4 ack 40 ------- 0 5.0 0.0 20 97
r 1.987199 5 4 ack 40 ------- 0 5.0 0.0 20 97
h 1.987199 4 6 ack 40 ------- 0 5.0 0.0 20 97
r 1.993199 6 4 tcp 1040 ------- 0 0.0 5.0 29 74
+ 1.993199 4 5 tcp 1040 ------- 0 0.0 5.0 29 74
- 1.993199 4 5 tcp 1040 ------- 0 0.0 5.0 22 67
r 1.993284 6 4 tcp 1040 ------- 0 0.0 5.0 30 75
+ 1.993284 4 5 tcp 1040 ------- 0 0.0 5.0 30 75
r 1.994199 4 5 tcp 1040 ------- 0 0.0 5.0 21 66
+ 1.994199 5 4 ack 40 ------- 0 5.0 0.0 21 98
- 1.994199 5 4 ack 40 ------- 0 5.0 0.0 21 98
r 1.995519 5 4 ack 40 ------- 0 5.0 0.0 21 98
h 1.995519 4 6 ack 40 ------- 0 5.0 0.0 21 98
r 2.000399 6 3 tcp 1040 ------- 0 2.0 3.0 15 76
h 2.000399 3 6 ack 40 ------- 0 3.0 2.0 15 99
r 2.000484 6 3 tcp 1040 ------- 0 2.0 3.0 16 77
h 2.000484 3 6 ack 40 ------- 0 3.0 2.0 16 100
r 2.000569 6 3 tcp 1040 ------- 0 2.0 3.0 17 78
h 2.000569 3 6 ack 40 ------- 0 3.0 2.0 17 101
r 2.000655 6 3 tcp 1040 ------- 0 2.0 3.0 18 79
h 2.000655 3 6 ack 40 ------- 0 3.0 2.0 18 102
r 2.00074 6 3 tcp 1040 ------- 0 2.0 3.0 19 80
h 2.00074 3 6 ack 40 ------- 0 3.0 2.0 19 103
r 2.000825 6 3 tcp 1040 ------- 0 2.0 3.0 20 81
h 2.000825 3 6 ack 40 ------- 0 3.0 2.0 20 104
r 2.000911 6 3 tcp 1040 ------- 0 2.0 3.0 21 82
h 2.000911 3 6 ack 40 ------- 0 3.0 2.0 21 105
r 2.000996 6 3 tcp 1040 ------- 0 2.0 3.0 22 83
h 2.000996 3 6 ack 40 ------- 0 3.0 2.0 22 106
r 2.001081 6 3 tcp 1040 ------- 0 2.0 3.0 23 84
h 2.001081 3 6 ack 40 ------- 0 3.0 2.0 23 107
r 2.001166 6 3 tcp 1040 ------- 0 2.0 3.0 24 85
h 2.001166 3 6 ack 40 ------- 0 3.0 2.0 24 108
r 2.001252 6 3 tcp 1040 ------- 0 2.0 3.0 25 86
h 2.001252 3 6 ack 40 ------- 0 3.0 2.0 25 109
r 2.001337 6 3 tcp 1040 ------- 0 2.0 3.0 26 87
h 2.001337 3 6 ack 40 ------- 0 3.0 2.0 26 110
r 2.001422 6 3 tcp 1040 ------- 0 2.0 3.0 27 88
h 2.001422 3 6 ack 40 ------- 0 3.0 2.0 27 111
r 2.001508 6 3 tcp 1040 ------- 0 2.0 3.0 28 89
h 2.001508 3 6 ack 40 ------- 0 3.0 2.0 28 112
- 2.001519 4 5 tcp 1040 ------- 0 0.0 5.0 23 68
r 2.001593 6 3 tcp 1040 ------- 0 2.0 3.0 29 90
h 2.001593 3 6 ack 40 ------- 0 3.0 2.0 29 113
r 2.001678 6 3 tcp 1040 ------- 0 2.0 3.0 30 91
h 2.001678 3 6 ack 40 ------- 0 3.0 2.0 30 114
r 2.002519 4 5 tcp 1040 ------- 0 0.0 5.0 22 67
+ 2.002519 5 4 ack 40 ------- 0 5.0 0.0 22 115
- 2.002519 5 4 ack 40 ------- 0 5.0 0.0 22 115
r 2.003839 5 4 ack 40 ------- 0 5.0 0.0 22 115
h 2.003839 4 6 ack 40 ------- 0 5.0 0.0 22 115
- 2.009839 4 5 tcp 1040 ------- 0 0.0 5.0 24 69
r 2.010839 4 5 tcp 1040 ------- 0 0.0 5.0 23 68
+ 2.010839 5 4 ack 40 ------- 0 5.0 0.0 23 116
- 2.010839 5 4 ack 40 ------- 0 5.0 0.0 23 116
r 2.012159 5 4 ack 40 ------- 0 5.0 0.0 23 116
h 2.012159 4 6 ack 40 ------- 0 5.0 0.0 23 116
- 2.018159 4 5 tcp 1040 ------- 0 0.0 5.0 25 70
r 2.019159 4 5 tcp 1040 ------- 0 0.0 5.0 24 69
+ 2.019159 5 4 ack 40 ------- 0 5.0 0.0 24 117
- 2.019159 5 4 ack 40 ------- 0 5.0 0.0 24 117
r 2.020479 5 4 ack 40 ------- 0 5.0 0.0 24 117
h 2.020479 4 6 ack 40 ------- 0 5.0 0.0 24 117
- 2.026479 4 5 tcp 1040 ------- 0 0.0 5.0 26 71
r 2.027479 4 5 tcp 1040 ------- 0 0.0 5.0 25 70
+ 2.027479 5 4 ack 40 ------- 0 5.0 0.0 25 118
- 2.027479 5 4 ack 40 ------- 0 5.0 0.0 25 118
r 2.028799 5 4 ack 40 ------- 0 5.0 0.0 25 118
h 2.028799 4 6 ack 40 ------- 0 5.0 0.0 25 118
- 2.034799 4 5 tcp 1040 ------- 0 0.0 5.0 27 72
r 2.035799 4 5 tcp 1040 ------- 0 0.0 5.0 26 71
+ 2.035799 5 4 ack 40 ------- 0 5.0 0.0 26 119
- 2.035799 5 4 ack 40 ------- 0 5.0 0.0 26 119
r 2.037119 5 4 ack 40 ------- 0 5.0 0.0 26 119
h 2.037119 4 6 ack 40 ------- 0 5.0 0.0 26 119
- 2.043119 4 5 tcp 1040 ------- 0 0.0 5.0 28 73
r 2.044119 4 5 tcp 1040 ------- 0 0.0 5.0 27 72
+ 2.044119 5 4 ack 40 ------- 0 5.0 0.0 27 120
- 2.044119 5 4 ack 40 ------- 0 5.0 0.0 27 120
r 2.045439 5 4 ack 40 ------- 0 5.0 0.0 27 120
h 2.045439 4 6 ack 40 ------- 0 5.0 0.0 27 120
+ 2.045599 4 6 ack 40 ------- 0 5.0 0.0 15 92
- 2.045599 4 6 ack 40 ------- 0 5.0 0.0 15 92
- 2.051439 4 5 tcp 1040 ------- 0 0.0 5.0 29 74
r 2.052439 4 5 tcp 1040 ------- 0 0.0 5.0 28 73
+ 2.052439 5 4 ack 40 ------- 0 5.0 0.0 28 121
- 2.052439 5 4 ack 40 ------- 0 5.0 0.0 28 121
r 2.053759 5 4 ack 40 ------- 0 5.0 0.0 28 121
h 2.053759 4 6 ack 40 ------- 0 5.0 0.0 28 121
+ 2.053919 4 6 ack 40 ------- 0 5.0 0.0 16 93
- 2.053919 4 6 ack 40 ------- 0 5.0 0.0 16 93
- 2.059759 4 5 tcp 1040 ------- 0 0.0 5.0 30 75
r 2.060759 4 5 tcp 1040 ------- 0 0.0 5.0 29 74
+ 2.060759 5 4 ack 40 ------- 0 5.0 0.0 29 122
- 2.060759 5 4 ack 40 ------- 0 5.0 0.0 29 122
r 2.062079 5 4 ack 40 ------- 0 5.0 0.0 29 122
h 2.062079 4 6 ack 40 ------- 0 5.0 0.0 29 122
+ 2.062239 4 6 ack 40 ------- 0 5.0 0.0 17 94
- 2.062239 4 6 ack 40 ------- 0 5.0 0.0 17 94
r 2.069079 4 5 tcp 1040 ------- 0 0.0 5.0 30 75
+ 2.069079 5 4 ack 40 ------- 0 5.0 0.0 30 123
- 2.069079 5 4 ack 40 ------- 0 5.0 0.0 30 123
r 2.070399 5 4 ack 40 ------- 0 5.0 0.0 30 123
h 2.070399 4 6 ack 40 ------- 0 5.0 0.0 30 123
+ 2.070559 4 6 ack 40 ------- 0 5.0 0.0 18 95
- 2.070559 4 6 ack 40 ------- 0 5.0 0.0 18 95
+ 2.078879 4 6 ack 40 ------- 0 5.0 0.0 19 96
- 2.078879 4 6 ack 40 ------- 0 5.0 0.0 19 96
+ 2.087199 4 6 ack 40 ------- 0 5.0 0.0 20 97
- 2.087199 4 6 ack 40 ------- 0 5.0 0.0 20 97
+ 2.095519 4 6 ack 40 ------- 0 5.0 0.0 21 98
- 2.095519 4 6 ack 40 ------- 0 5.0 0.0 21 98
+ 2.100399 3 6 ack 40 ------- 0 3.0 2.0 15 99
- 2.100399 3 6 ack 40 ------- 0 3.0 2.0 15 99
+ 2.100484 3 6 ack 40 ------- 0 3.0 2.0 16 100
- 2.100484 3 6 ack 40 ------- 0 3.0 2.0 16 100
+ 2.100569 3 6 ack 40 ------- 0 3.0 2.0 17 101
- 2.100569 3 6 ack 40 ------- 0 3.0 2.0 17 101
+ 2.100655 3 6 ack 40 ------- 0 3.0 2.0 18 102
- 2.100655 3 6 ack 40 ------- 0 3.0 2.0 18 102
+ 2.10074 3 6 ack 40 ------- 0 3.0 2.0 19 103
- 2.10074 3 6 ack 40 ------- 0 3.0 2.0 19 103
+ 2.100825 3 6 ack 40 ------- 0 3.0 2.0 20 104
- 2.100825 3 6 ack 40 ------- 0 3.0 2.0 20 104
+ 2.100911 3 6 ack 40 ------- 0 3.0 2.0 21 105
- 2.100911 3 6 ack 40 ------- 0 3.0 2.0 21 105
+ 2.100996 3 6 ack 40 ------- 0 3.0 2.0 22 106
- 2.100996 3 6 ack 40 ------- 0 3.0 2.0 22 106
+ 2.101081 3 6 ack 40 ------- 0 3.0 2.0 23 107
- 2.101081 3 6 ack 40 ------- 0 3.0 2.0 23 107
+ 2.101166 3 6 ack 40 ------- 0 3.0 2.0 24 108
- 2.101166 3 6 ack 40 ------- 0 3.0 2.0 24 108
+ 2.101252 3 6 ack 40 ------- 0 3.0 2.0 25 109
- 2.101252 3 6 ack 40 ------- 0 3.0 2.0 25 109
+ 2.101337 3 6 ack 40 ------- 0 3.0 2.0 26 110
- 2.101337 3 6 ack 40 ------- 0 3.0 2.0 26 110
+ 2.101422 3 6 ack 40 ------- 0 3.0 2.0 27 111
- 2.101422 3 6 ack 40 ------- 0 3.0 2.0 27 111
+ 2.101508 3 6 ack 40 ------- 0 3.0 2.0 28 112
- 2.101508 3 6 ack 40 ------- 0 3.0 2.0 28 112
+ 2.101593 3 6 ack 40 ------- 0 3.0 2.0 29 113
- 2.101593 3 6 ack 40 ------- 0 3.0 2.0 29 113
+ 2.101678 3 6 ack 40 ------- 0 3.0 2.0 30 114
- 2.101678 3 6 ack 40 ------- 0 3.0 2.0 30 114
+ 2.103839 4 6 ack 40 ------- 0 5.0 0.0 22 115
- 2.103839 4 6 ack 40 ------- 0 5.0 0.0 22 115
+ 2.112159 4 6 ack 40 ------- 0 5.0 0.0 23 116
- 2.112159 4 6 ack 40 ------- 0 5.0 0.0 23 116
+ 2.120479 4 6 ack 40 ------- 0 5.0 0.0 24 117
- 2.120479 4 6 ack 40 ------- 0 5.0 0.0 24 117
+ 2.128799 4 6 ack 40 ------- 0 5.0 0.0 25 118
- 2.128799 4 6 ack 40 ------- 0 5.0 0.0 25 118
+ 2.137119 4 6 ack 40 ------- 0 5.0 0.0 26 119
- 2.137119 4 6 ack 40 ------- 0 5.0 0.0 26 119